Boundary condition: CritDepth_rest
VARIABLES="X","Y","Z","Head","Flux (nodal)"
ZONE  T="CritDepth_rest" , SOLUTIONTIME= 0.10000E+01, I=        80    , DATAPACKING=BLOCK, DT=(DOUBLE DOUBLE)
# X
  0.725495010000000     
  0.130238330000000     
  0.213971640000000     
   1.42883960000000     
   1.97208460000000     
   3.25114170000000     
   3.70916140000000     
   5.07344370000000     
   5.51988800000000     
   6.80176330000000     
   7.40281930000000     
   8.49425620000000     
   9.28575060000000     
   10.5855830000000     
   11.2110580000000     
   12.5772910000000     
   13.1683560000000     
   14.5690000000000     
   15.1256540000000     
   16.5607080000000     
   17.0856000000000     
   18.5524170000000     
   19.0554630000000     
   20.5441250000000     
   21.0253270000000     
   22.5358330000000     
   22.9951910000000     
   24.5275420000000     
   24.9650930000000     
   26.5192500000000     
   26.9515530000000     
   28.5109590000000     
   28.9380130000000     
   30.5026670000000     
   30.9244730000000     
   32.4943760000000     
   32.9109330000000     
   34.4860840000000     
   34.8993390000000     
   36.4777930000000     
   36.8906980000000     
   38.4695010000000     
   38.8820560000000     
   40.4612100000000     
   40.8734140000000     
   42.4529180000000     
   42.8647730000000     
   44.4446270000000     
   44.8538850000000     
   46.4363350000000     
   46.8404530000000     
   48.4280440000000     
   48.8270210000000     
   50.4197520000000     
   50.8135880000000     
   52.4114600000000     
   52.8001560000000     
   54.4031690000000     
   54.7802260000000     
   56.3948770000000     
   56.7588320000000     
   58.3865860000000     
   58.7374380000000     
   60.3782940000000     
   60.7160440000000     
   62.8116440000000     
   62.6946500000000     
   65.0815290000000     
   64.6358290000000     
   66.5680940000000     
   68.5003600000000     
   70.4326260000000     
   72.3648910000000     
   74.1979480000000     
   76.0170020000000     
   77.8360560000000     
   77.9679850000000     
   76.2808590000000     
   74.5937330000000     
   79.6551110000000     
# Y
   8.75478640000000     
   6.69229070000000     
   5.01427180000000     
   3.54364210000000     
   9.85102170000000     
   2.39271450000000     
   10.8254790000000     
   1.33769750000000     
   11.6357410000000     
  0.596814030000000     
   12.2850270000000     
  0.000000000000000E+000
   12.9343140000000     
  0.000000000000000E+000
   13.4237510000000     
  0.000000000000000E+000
   13.7925180000000     
  0.000000000000000E+000
   14.1612840000000     
  0.000000000000000E+000
   14.5143690000000     
  0.000000000000000E+000
   14.8087160000000     
  0.000000000000000E+000
   15.1030640000000     
  0.000000000000000E+000
   15.3974110000000     
  0.000000000000000E+000
   15.6914110000000     
  0.000000000000000E+000
   15.8362570000000     
  0.000000000000000E+000
   15.9811030000000     
  0.000000000000000E+000
   16.1259490000000     
  0.000000000000000E+000
   16.2707950000000     
  0.000000000000000E+000
   16.3734480000000     
  0.000000000000000E+000
   16.4121150000000     
  0.000000000000000E+000
   16.4507820000000     
  0.000000000000000E+000
   16.4894490000000     
  0.000000000000000E+000
   16.5281160000000     
  0.000000000000000E+000
   16.4814460000000     
  0.000000000000000E+000
   16.3380860000000     
  0.000000000000000E+000
   16.1947250000000     
  0.000000000000000E+000
   16.0513650000000     
  1.795657400000000E-004
   15.9080040000000     
  1.022179300000000E-002
   15.6953190000000     
  2.026402100000000E-002
   15.4670180000000     
  3.030624800000000E-002
   15.2387180000000     
  4.034847600000000E-002
   15.0104170000000     
  0.000000000000000E+000
   14.7821160000000     
  2.691889500000000E-002
   14.3480500000000     
   13.8649830000000     
   13.3819170000000     
   12.8988510000000     
   12.4157840000000     
   11.6451700000000     
   10.8339700000000     
   10.0227700000000     
   8.15298180000000     
   7.09439310000000     
   6.03580440000000     
   9.21157050000000     
# Z
   4.18995904922485     
   4.38186883926392     
   4.64156532287598     
   4.59553432464600     
   4.08125877380371     
   4.56334447860718     
   4.02550077438354     
   4.60002803802490     
   3.98585295677185     
   4.64241743087769     
   3.92557954788208     
   4.64686584472656     
   3.89070463180542     
   4.32219123840332     
   3.87159609794617     
   4.20701074600220     
   3.83182096481323     
   4.12821626663208     
   3.84615707397461     
   4.11188650131226     
   3.84461164474487     
   4.16625928878784     
   3.76973748207092     
   4.10305500030518     
   3.74211478233337     
   4.16254615783691     
   3.78165149688721     
   4.12819576263428     
   3.84049844741821     
   4.13283109664917     
   3.74615979194641     
   4.14118766784668     
   3.66831421852112     
   4.09541940689087     
   3.68341374397278     
   4.13300848007202     
   3.71615624427795     
   4.12401247024536     
   3.71749472618103     
   4.10576391220093     
   3.68716931343079     
   4.15568065643311     
   3.67689585685730     
   4.07123947143555     
   3.68885183334351     
   4.05068159103394     
   3.73427605628967     
   3.96666312217712     
   3.71685171127319     
   3.95935773849487     
   3.67680025100708     
   3.94873452186584     
   3.65811491012573     
   3.77297925949097     
   3.67503976821899     
   3.68063259124756     
   3.72368359565735     
   3.68415594100952     
   3.70898127555847     
   3.79705476760864     
   3.66947221755981     
   3.78539156913757     
   3.67763304710388     
   3.69011783599854     
   3.73996233940125     
   3.65275669097900     
   3.85292601585388     
   3.68291091918945     
   3.75673818588257     
   3.64541840553284     
   3.60289549827576     
   3.64955019950867     
   3.72979164123535     
   3.69616055488586     
   3.65627455711365     
   3.65564203262329     
   3.69612765312195     
   3.68862533569336     
   3.53917288780212     
   3.69433426856995     
# Head
  1.156134808088204E-004
  1.155335180034049E-004
  1.154693612246850E-004
  1.158152782074042E-004
  1.157058581822452E-004
  1.159824999224868E-004
  1.157669553120194E-004
  1.158869438084069E-004
  1.158157505255127E-004
  1.156247786770161E-004
  1.159061936454413E-004
  1.155864114668917E-004
  1.159351990702352E-004
  1.157316429117404E-004
  1.159555828710509E-004
  1.157644477088359E-004
  1.160099042291172E-004
  1.157778041384612E-004
  1.159840797625001E-004
  1.157649101875424E-004
  1.159880001279698E-004
  1.157146755596482E-004
  1.160870531398953E-004
  1.157703362483125E-004
  1.161209082659544E-004
  1.156932726333829E-004
  1.160784913822218E-004
  1.157124453127862E-004
  1.159980714049492E-004
  1.157139795927084E-004
  1.161313664795451E-004
  1.156721665103079E-004
  1.162310522439125E-004
  1.156870171427272E-004
  1.162073646008236E-004
  1.156221521417148E-004
  1.161568163205903E-004
  1.156222915129021E-004
  1.161539716369935E-004
  1.156464484508593E-004
  1.161936026979183E-004
  1.155934873002883E-004
  1.162088444153560E-004
  1.156953737434907E-004
  1.161923252603724E-004
  1.157229400618659E-004
  1.161277765602257E-004
  1.158297153846477E-004
  1.161526672301598E-004
  1.158324787738537E-004
  1.162093320378522E-004
  1.158821346002804E-004
  1.162298245074554E-004
  1.161131513647477E-004
  1.162168231444089E-004
  1.162035304858248E-004
  1.161506211340370E-004
  1.162049111269767E-004
  1.161713195530843E-004
  1.160548628336385E-004
  1.162237935814395E-004
  1.160706330680466E-004
  1.162091120908436E-004
  1.162290761362084E-004
  1.161349208786137E-004
  1.163243522558634E-004
  1.159889445786685E-004
  1.164035786710989E-004
  1.161163764511765E-004
  1.162607114888713E-004
  1.163063149387861E-004
  1.162499904323396E-004
  1.161406445307756E-004
  1.161822316311680E-004
  1.162392730808717E-004
  1.162330395887894E-004
  1.161784444718137E-004
  1.162137504415470E-004
  1.164998959818195E-004
  1.161819050025974E-004
# Flux
  0.000000000000000E+000
  0.000000000000000E+000
  0.000000000000000E+000
  0.000000000000000E+000
  0.000000000000000E+000
  0.000000000000000E+000
  0.000000000000000E+000
  0.000000000000000E+000
  0.000000000000000E+000
  0.000000000000000E+000
  0.000000000000000E+000
  0.000000000000000E+000
  0.000000000000000E+000
  0.000000000000000E+000
  0.000000000000000E+000
  0.000000000000000E+000
  0.000000000000000E+000
  0.000000000000000E+000
  0.000000000000000E+000
  0.000000000000000E+000
  0.000000000000000E+000
  0.000000000000000E+000
  0.000000000000000E+000
  0.000000000000000E+000
  0.000000000000000E+000
  0.000000000000000E+000
  0.000000000000000E+000
  0.000000000000000E+000
  0.000000000000000E+000
  0.000000000000000E+000
  0.000000000000000E+000
  0.000000000000000E+000
  0.000000000000000E+000
  0.000000000000000E+000
  0.000000000000000E+000
  0.000000000000000E+000
  0.000000000000000E+000
  0.000000000000000E+000
  0.000000000000000E+000
  0.000000000000000E+000
  0.000000000000000E+000
  0.000000000000000E+000
  0.000000000000000E+000
  0.000000000000000E+000
  0.000000000000000E+000
  0.000000000000000E+000
  0.000000000000000E+000
  0.000000000000000E+000
  0.000000000000000E+000
  0.000000000000000E+000
  0.000000000000000E+000
  0.000000000000000E+000
  0.000000000000000E+000
  0.000000000000000E+000
  0.000000000000000E+000
  0.000000000000000E+000
  0.000000000000000E+000
  0.000000000000000E+000
  0.000000000000000E+000
  0.000000000000000E+000
  0.000000000000000E+000
  0.000000000000000E+000
  0.000000000000000E+000
  0.000000000000000E+000
  0.000000000000000E+000
  0.000000000000000E+000
  0.000000000000000E+000
  0.000000000000000E+000
  0.000000000000000E+000
  0.000000000000000E+000
  0.000000000000000E+000
  0.000000000000000E+000
  0.000000000000000E+000
  0.000000000000000E+000
  0.000000000000000E+000
  0.000000000000000E+000
  0.000000000000000E+000
  0.000000000000000E+000
  0.000000000000000E+000
  0.000000000000000E+000
ZONE  T="CritDepth_rest"  , SOLUTIONTIME= 0.30000E+03  , I=        80, DATAPACKING=BLOCK, DT=(DOUBLE DOUBLE), VARSHARELIST=([1,2,3])
# Head
  3.825119298206704E-004
  3.834220168377703E-004
  3.857798919220133E-004
  3.895458570039097E-004
  3.829876775763926E-004
  3.911824111487255E-004
  3.837813093047681E-004
  3.904427047633905E-004
  3.844394114112579E-004
  3.876363615205572E-004
  3.860929248538539E-004
  3.878214626673147E-004
  3.868697196088789E-004
  3.851150190628175E-004
  3.875351573772505E-004
  3.844537091816146E-004
  3.889782874082302E-004
  3.841386385820623E-004
  3.883466272836348E-004
  3.839277901861736E-004
  3.884221599973584E-004
  3.836555116176391E-004
  3.919033122066312E-004
  3.839682593963878E-004
  3.935298173096248E-004
  3.832288667715584E-004
  3.913663524222348E-004
  3.833607887095021E-004
  3.886408010647457E-004
  3.834726447501643E-004
  3.934287989613721E-004
  3.830030622201586E-004
  3.992127505553342E-004
  3.828924948636654E-004
  3.978345083708097E-004
  3.823786050089630E-004
  3.952536297282303E-004
  3.822734893887692E-004
  3.951427510154770E-004
  3.824933579607988E-004
  3.974393296627723E-004
  3.820111759517324E-004
  3.983035491430461E-004
  3.829730691000574E-004
  3.973098022513697E-004
  3.832805252954210E-004
  3.939723971873338E-004
  3.847342843646450E-004
  3.951639272839477E-004
  3.848056258769011E-004
  3.983163977601646E-004
  3.855915294994907E-004
  3.999340302475691E-004
  3.920855142971519E-004
  3.986004470495842E-004
  3.979755076541275E-004
  3.947607753217674E-004
  3.977599928451807E-004
  3.958136592218592E-004
  3.906053495364840E-004
  3.990457306866496E-004
  3.911406996969415E-004
  3.982522349320659E-004
  3.976697482579201E-004
  3.938004547231749E-004
  4.014712950945118E-004
  3.882851429511787E-004
  4.002146733728653E-004
  3.927795005430637E-004
  4.013186277363680E-004
  4.057895083733185E-004
  4.008408945599619E-004
  3.943438078642306E-004
  3.967533624958206E-004
  4.001935537180640E-004
  4.001695348462779E-004
  3.967099102392688E-004
  3.975815368996379E-004
  4.158962645780872E-004
  3.968481539538992E-004
# Flux
  0.000000000000000E+000
  0.000000000000000E+000
  0.000000000000000E+000
  0.000000000000000E+000
  0.000000000000000E+000
  0.000000000000000E+000
  0.000000000000000E+000
  0.000000000000000E+000
  0.000000000000000E+000
  0.000000000000000E+000
  0.000000000000000E+000
  0.000000000000000E+000
  0.000000000000000E+000
  0.000000000000000E+000
  0.000000000000000E+000
  0.000000000000000E+000
  0.000000000000000E+000
  0.000000000000000E+000
  0.000000000000000E+000
  0.000000000000000E+000
  0.000000000000000E+000
  0.000000000000000E+000
  0.000000000000000E+000
  0.000000000000000E+000
  0.000000000000000E+000
  0.000000000000000E+000
  0.000000000000000E+000
  0.000000000000000E+000
  0.000000000000000E+000
  0.000000000000000E+000
  0.000000000000000E+000
  0.000000000000000E+000
  0.000000000000000E+000
  0.000000000000000E+000
  0.000000000000000E+000
  0.000000000000000E+000
  0.000000000000000E+000
  0.000000000000000E+000
  0.000000000000000E+000
  0.000000000000000E+000
  0.000000000000000E+000
  0.000000000000000E+000
  0.000000000000000E+000
  0.000000000000000E+000
  0.000000000000000E+000
  0.000000000000000E+000
  0.000000000000000E+000
  0.000000000000000E+000
  0.000000000000000E+000
  0.000000000000000E+000
  0.000000000000000E+000
  0.000000000000000E+000
  0.000000000000000E+000
  0.000000000000000E+000
  0.000000000000000E+000
  0.000000000000000E+000
  0.000000000000000E+000
  0.000000000000000E+000
  0.000000000000000E+000
  0.000000000000000E+000
  0.000000000000000E+000
  0.000000000000000E+000
  0.000000000000000E+000
  0.000000000000000E+000
  0.000000000000000E+000
  0.000000000000000E+000
  0.000000000000000E+000
  0.000000000000000E+000
  0.000000000000000E+000
  0.000000000000000E+000
  0.000000000000000E+000
  0.000000000000000E+000
  0.000000000000000E+000
  0.000000000000000E+000
  0.000000000000000E+000
  0.000000000000000E+000
  0.000000000000000E+000
  0.000000000000000E+000
  0.000000000000000E+000
  0.000000000000000E+000
ZONE  T="CritDepth_rest"  , SOLUTIONTIME= 0.60000E+03  , I=        80, DATAPACKING=BLOCK, DT=(DOUBLE DOUBLE), VARSHARELIST=([1,2,3])
# Head
  4.103096899177970E-004
  4.115554718426782E-004
  4.144580195723774E-004
  4.184981040817212E-004
  4.104021086522685E-004
  4.202289910611639E-004
  4.108649964078922E-004
  4.194786279044197E-004
  4.112839917193011E-004
  4.164908973238138E-004
  4.125076128873542E-004
  4.164502897198590E-004
  4.129039561261432E-004
  4.134649853463131E-004
  4.133299790104499E-004
  4.125107906075633E-004
  4.143739033602137E-004
  4.118601849161562E-004
  4.138430980361109E-004
  4.115416202514541E-004
  4.139648745885489E-004
  4.114666186647823E-004
  4.163190745083099E-004
  4.115335518603270E-004
  4.173789213231165E-004
  4.110658851555269E-004
  4.159568113741463E-004
  4.109815654157916E-004
  4.141691522516456E-004
  4.110822166892004E-004
  4.173842757157628E-004
  4.106532749990803E-004
  4.214720507310099E-004
  4.103292962835166E-004
  4.204462086823379E-004
  4.099301547924174E-004
  4.186427850752563E-004
  4.098121714926389E-004
  4.184974103460927E-004
  4.099161963839387E-004
  4.201187993519850E-004
  4.096585678126513E-004
  4.207924602813756E-004
  4.102724152288450E-004
  4.200296578101486E-004
  4.104759330225872E-004
  4.176629684413656E-004
  4.114991867118436E-004
  4.185669097803349E-004
  4.115507306357538E-004
  4.208027564286134E-004
  4.121729349044733E-004
  4.219276523784578E-004
  4.166043608438246E-004
  4.210291032104284E-004
  4.205129622979223E-004
  4.183072939847618E-004
  4.203847087093865E-004
  4.190374804349783E-004
  4.154005333714207E-004
  4.213285871613104E-004
  4.157954191210056E-004
  4.207207950679195E-004
  4.204650051669240E-004
  4.176197445667839E-004
  4.234405616841846E-004
  4.138705470152054E-004
  4.230615289998803E-004
  4.169721672886960E-004
  4.229971993934956E-004
  4.263034306922768E-004
  4.226284417237529E-004
  4.179517003770468E-004
  4.196548008335505E-004
  4.221701380198158E-004
  4.221174311827237E-004
  4.196054691761858E-004
  4.203223157941571E-004
  4.347302994406090E-004
  4.196993067715851E-004
# Flux
  0.000000000000000E+000
  0.000000000000000E+000
  0.000000000000000E+000
  0.000000000000000E+000
  0.000000000000000E+000
  0.000000000000000E+000
  0.000000000000000E+000
  0.000000000000000E+000
  0.000000000000000E+000
  0.000000000000000E+000
  0.000000000000000E+000
  0.000000000000000E+000
  0.000000000000000E+000
  0.000000000000000E+000
  0.000000000000000E+000
  0.000000000000000E+000
  0.000000000000000E+000
  0.000000000000000E+000
  0.000000000000000E+000
  0.000000000000000E+000
  0.000000000000000E+000
  0.000000000000000E+000
  0.000000000000000E+000
  0.000000000000000E+000
  0.000000000000000E+000
  0.000000000000000E+000
  0.000000000000000E+000
  0.000000000000000E+000
  0.000000000000000E+000
  0.000000000000000E+000
  0.000000000000000E+000
  0.000000000000000E+000
  0.000000000000000E+000
  0.000000000000000E+000
  0.000000000000000E+000
  0.000000000000000E+000
  0.000000000000000E+000
  0.000000000000000E+000
  0.000000000000000E+000
  0.000000000000000E+000
  0.000000000000000E+000
  0.000000000000000E+000
  0.000000000000000E+000
  0.000000000000000E+000
  0.000000000000000E+000
  0.000000000000000E+000
  0.000000000000000E+000
  0.000000000000000E+000
  0.000000000000000E+000
  0.000000000000000E+000
  0.000000000000000E+000
  0.000000000000000E+000
  0.000000000000000E+000
  0.000000000000000E+000
  0.000000000000000E+000
  0.000000000000000E+000
  0.000000000000000E+000
  0.000000000000000E+000
  0.000000000000000E+000
  0.000000000000000E+000
  0.000000000000000E+000
  0.000000000000000E+000
  0.000000000000000E+000
  0.000000000000000E+000
  0.000000000000000E+000
  0.000000000000000E+000
  0.000000000000000E+000
  0.000000000000000E+000
  0.000000000000000E+000
  0.000000000000000E+000
  0.000000000000000E+000
  0.000000000000000E+000
  0.000000000000000E+000
  0.000000000000000E+000
  0.000000000000000E+000
  0.000000000000000E+000
  0.000000000000000E+000
  0.000000000000000E+000
  0.000000000000000E+000
  0.000000000000000E+000
ZONE  T="CritDepth_rest"  , SOLUTIONTIME= 0.90000E+03  , I=        80, DATAPACKING=BLOCK, DT=(DOUBLE DOUBLE), VARSHARELIST=([1,2,3])
# Head
  4.277963170904965E-004
  4.291871294697829E-004
  4.323145652323928E-004
  4.366627158469046E-004
  4.279268244377246E-004
  4.385658104601815E-004
  4.280704489790073E-004
  4.377387106421910E-004
  4.285316408219323E-004
  4.345304244818263E-004
  4.297532649739449E-004
  4.343743848648436E-004
  4.301721606652664E-004
  4.312133893742494E-004
  4.305950242526687E-004
  4.301632756527320E-004
  4.313304755337670E-004
  4.294743203012912E-004
  4.307874322565097E-004
  4.291280866660445E-004
  4.309002887108303E-004
  4.290219136044180E-004
  4.329244053545617E-004
  4.291242932932823E-004
  4.339585815024385E-004
  4.286152162430736E-004
  4.328909893139755E-004
  4.285207904541427E-004
  4.311063768176189E-004
  4.286180523967316E-004
  4.339889166143377E-004
  4.281453186928893E-004
  4.376337348721812E-004
  4.278215945904959E-004
  4.366431285558575E-004
  4.273618790544639E-004
  4.351781622883320E-004
  4.272499134434422E-004
  4.350443106840281E-004
  4.273685355566719E-004
  4.363117872599230E-004
  4.270969845138353E-004
  4.369595244956970E-004
  4.277630886421034E-004
  4.362277767170031E-004
  4.279881166525013E-004
  4.342328726077924E-004
  4.287175289138117E-004
  4.351003121087059E-004
  4.287601901335336E-004
  4.369694392162851E-004
  4.294213766202132E-004
  4.380485871934542E-004
  4.332338923964287E-004
  4.371897566955074E-004
  4.366949204610141E-004
  4.348670718351701E-004
  4.365797538160276E-004
  4.355770203825552E-004
  4.323204778191966E-004
  4.374854301189555E-004
  4.327225123058497E-004
  4.368972631373624E-004
  4.367044659811382E-004
  4.342076308448758E-004
  4.393429958932580E-004
  4.308212982852690E-004
  4.394526751170100E-004
  4.335774433196213E-004
  4.388096878644349E-004
  4.416955155422278E-004
  4.384476720790235E-004
  4.345325964220521E-004
  4.358575752488829E-004
  4.380096347970355E-004
  4.379434368378803E-004
  4.358025247455796E-004
  4.365400049491885E-004
  4.494546922454889E-004
  4.358977020242507E-004
# Flux
  0.000000000000000E+000
  0.000000000000000E+000
  0.000000000000000E+000
  0.000000000000000E+000
  0.000000000000000E+000
  0.000000000000000E+000
  0.000000000000000E+000
  0.000000000000000E+000
  0.000000000000000E+000
  0.000000000000000E+000
  0.000000000000000E+000
  0.000000000000000E+000
  0.000000000000000E+000
  0.000000000000000E+000
  0.000000000000000E+000
  0.000000000000000E+000
  0.000000000000000E+000
  0.000000000000000E+000
  0.000000000000000E+000
  0.000000000000000E+000
  0.000000000000000E+000
  0.000000000000000E+000
  0.000000000000000E+000
  0.000000000000000E+000
  0.000000000000000E+000
  0.000000000000000E+000
  0.000000000000000E+000
  0.000000000000000E+000
  0.000000000000000E+000
  0.000000000000000E+000
  0.000000000000000E+000
  0.000000000000000E+000
  0.000000000000000E+000
  0.000000000000000E+000
  0.000000000000000E+000
  0.000000000000000E+000
  0.000000000000000E+000
  0.000000000000000E+000
  0.000000000000000E+000
  0.000000000000000E+000
  0.000000000000000E+000
  0.000000000000000E+000
  0.000000000000000E+000
  0.000000000000000E+000
  0.000000000000000E+000
  0.000000000000000E+000
  0.000000000000000E+000
  0.000000000000000E+000
  0.000000000000000E+000
  0.000000000000000E+000
  0.000000000000000E+000
  0.000000000000000E+000
  0.000000000000000E+000
  0.000000000000000E+000
  0.000000000000000E+000
  0.000000000000000E+000
  0.000000000000000E+000
  0.000000000000000E+000
  0.000000000000000E+000
  0.000000000000000E+000
  0.000000000000000E+000
  0.000000000000000E+000
  0.000000000000000E+000
  0.000000000000000E+000
  0.000000000000000E+000
  0.000000000000000E+000
  0.000000000000000E+000
  0.000000000000000E+000
  0.000000000000000E+000
  0.000000000000000E+000
  0.000000000000000E+000
  0.000000000000000E+000
  0.000000000000000E+000
  0.000000000000000E+000
  0.000000000000000E+000
  0.000000000000000E+000
  0.000000000000000E+000
  0.000000000000000E+000
  0.000000000000000E+000
  0.000000000000000E+000
ZONE  T="CritDepth_rest"  , SOLUTIONTIME= 0.12000E+04  , I=        80, DATAPACKING=BLOCK, DT=(DOUBLE DOUBLE), VARSHARELIST=([1,2,3])
# Head
  4.400971695809808E-004
  4.418176935212467E-004
  4.451618932168780E-004
  4.495568826148732E-004
  4.402697979305871E-004
  4.515917710718540E-004
  4.405086013840474E-004
  4.507223354915095E-004
  4.408161030792686E-004
  4.473150002665338E-004
  4.419873905460135E-004
  4.471041163090712E-004
  4.424636873392209E-004
  4.437421187698753E-004
  4.427294996460754E-004
  4.425919837238961E-004
  4.436262579801991E-004
  4.418820847595677E-004
  4.430405544884207E-004
  4.415304699509782E-004
  4.431539568464792E-004
  4.413806026677618E-004
  4.451063101840436E-004
  4.415084525481547E-004
  4.460563063372378E-004
  4.409651512335300E-004
  4.451283126989720E-004
  4.408664544910936E-004
  4.433701691711814E-004
  4.409585254865249E-004
  4.460931340808387E-004
  4.404607832006190E-004
  4.495588229889432E-004
  4.401293888697647E-004
  4.486826428836545E-004
  4.396150717417847E-004
  4.471514032357358E-004
  4.395118928302297E-004
  4.470284192795387E-004
  4.396680231811759E-004
  4.484418884240148E-004
  4.393603434770105E-004
  4.488426594661385E-004
  4.400783712822521E-004
  4.483502847033957E-004
  4.403397857275506E-004
  4.463537631919504E-004
  4.410038485454181E-004
  4.470730851216040E-004
  4.410477777679258E-004
  4.488522874430167E-004
  4.417656464151853E-004
  4.498106804992682E-004
  4.454268253981391E-004
  4.490796937532381E-004
  4.487320373392487E-004
  4.468290423836917E-004
  4.486115739440374E-004
  4.475924285511364E-004
  4.445001644309826E-004
  4.493998901397048E-004
  4.449424204372645E-004
  4.489436843236892E-004
  4.488503506860039E-004
  4.463138745922109E-004
  4.512202882144388E-004
  4.430625313764601E-004
  4.514647540958077E-004
  4.458154315375576E-004
  4.506638683170275E-004
  4.532896944434764E-004
  4.502849434439250E-004
  4.466706540347471E-004
  4.479535249935682E-004
  4.498263308890018E-004
  4.497510350885456E-004
  4.478926342586745E-004
  4.486778793202756E-004
  4.607586410710442E-004
  4.479927158084759E-004
# Flux
  0.000000000000000E+000
  0.000000000000000E+000
  0.000000000000000E+000
  0.000000000000000E+000
  0.000000000000000E+000
  0.000000000000000E+000
  0.000000000000000E+000
  0.000000000000000E+000
  0.000000000000000E+000
  0.000000000000000E+000
  0.000000000000000E+000
  0.000000000000000E+000
  0.000000000000000E+000
  0.000000000000000E+000
  0.000000000000000E+000
  0.000000000000000E+000
  0.000000000000000E+000
  0.000000000000000E+000
  0.000000000000000E+000
  0.000000000000000E+000
  0.000000000000000E+000
  0.000000000000000E+000
  0.000000000000000E+000
  0.000000000000000E+000
  0.000000000000000E+000
  0.000000000000000E+000
  0.000000000000000E+000
  0.000000000000000E+000
  0.000000000000000E+000
  0.000000000000000E+000
  0.000000000000000E+000
  0.000000000000000E+000
  0.000000000000000E+000
  0.000000000000000E+000
  0.000000000000000E+000
  0.000000000000000E+000
  0.000000000000000E+000
  0.000000000000000E+000
  0.000000000000000E+000
  0.000000000000000E+000
  0.000000000000000E+000
  0.000000000000000E+000
  0.000000000000000E+000
  0.000000000000000E+000
  0.000000000000000E+000
  0.000000000000000E+000
  0.000000000000000E+000
  0.000000000000000E+000
  0.000000000000000E+000
  0.000000000000000E+000
  0.000000000000000E+000
  0.000000000000000E+000
  0.000000000000000E+000
  0.000000000000000E+000
  0.000000000000000E+000
  0.000000000000000E+000
  0.000000000000000E+000
  0.000000000000000E+000
  0.000000000000000E+000
  0.000000000000000E+000
  0.000000000000000E+000
  0.000000000000000E+000
  0.000000000000000E+000
  0.000000000000000E+000
  0.000000000000000E+000
  0.000000000000000E+000
  0.000000000000000E+000
  0.000000000000000E+000
  0.000000000000000E+000
  0.000000000000000E+000
  0.000000000000000E+000
  0.000000000000000E+000
  0.000000000000000E+000
  0.000000000000000E+000
  0.000000000000000E+000
  0.000000000000000E+000
  0.000000000000000E+000
  0.000000000000000E+000
  0.000000000000000E+000
  0.000000000000000E+000
ZONE  T="CritDepth_rest"  , SOLUTIONTIME= 0.15000E+04  , I=        80, DATAPACKING=BLOCK, DT=(DOUBLE DOUBLE), VARSHARELIST=([1,2,3])
# Head
  4.493361997839915E-004
  4.511642523195071E-004
  4.546745668696413E-004
  4.592385238933892E-004
  4.494255218393734E-004
  4.613034462146195E-004
  4.496813211746429E-004
  4.604427319956913E-004
  4.500604107674866E-004
  4.569272201314818E-004
  4.510826099336054E-004
  4.566818639692925E-004
  4.514169908724014E-004
  4.531400969184080E-004
  4.516055647230217E-004
  4.518846815507822E-004
  4.525413402709937E-004
  4.511242429698070E-004
  4.519754238384930E-004
  4.507407138009550E-004
  4.520873446488742E-004
  4.506063369109840E-004
  4.540282501986980E-004
  4.507066054930398E-004
  4.549089686189549E-004
  4.501911614849399E-004
  4.539981597958144E-004
  4.500678934638861E-004
  4.523031491725831E-004
  4.501521453424216E-004
  4.549650083912618E-004
  4.496619013781535E-004
  4.582771329896363E-004
  4.492919964040528E-004
  4.574661630798488E-004
  4.487729378747228E-004
  4.559375966366381E-004
  4.486645244023417E-004
  4.558420081657484E-004
  4.488444493750455E-004
  4.571950153498079E-004
  4.485353880756746E-004
  4.576412218162135E-004
  4.492082249795350E-004
  4.571967142030446E-004
  4.494976681724695E-004
  4.551319715600316E-004
  4.502188081874004E-004
  4.558651882685602E-004
  4.502450181892464E-004
  4.576405540977645E-004
  4.509811854688649E-004
  4.585459808054388E-004
  4.543590499159313E-004
  4.578591929096505E-004
  4.575121831167361E-004
  4.556447534337557E-004
  4.573879834026322E-004
  4.564130599988314E-004
  4.534609934981134E-004
  4.581107442670395E-004
  4.539202204196561E-004
  4.577204528105911E-004
  4.577158428126950E-004
  4.550867568832296E-004
  4.599581471054471E-004
  4.519807980098640E-004
  4.602355369965288E-004
  4.546414874754304E-004
  4.593809562594340E-004
  4.619136396577919E-004
  4.590046569377256E-004
  4.554299064523394E-004
  4.568200926485952E-004
  4.586160820619951E-004
  4.585328167763760E-004
  4.567543795296325E-004
  4.575287257820852E-004
  4.691654474309890E-004
  4.568573680881942E-004
# Flux
  0.000000000000000E+000
  0.000000000000000E+000
  0.000000000000000E+000
  0.000000000000000E+000
  0.000000000000000E+000
  0.000000000000000E+000
  0.000000000000000E+000
  0.000000000000000E+000
  0.000000000000000E+000
  0.000000000000000E+000
  0.000000000000000E+000
  0.000000000000000E+000
  0.000000000000000E+000
  0.000000000000000E+000
  0.000000000000000E+000
  0.000000000000000E+000
  0.000000000000000E+000
  0.000000000000000E+000
  0.000000000000000E+000
  0.000000000000000E+000
  0.000000000000000E+000
  0.000000000000000E+000
  0.000000000000000E+000
  0.000000000000000E+000
  0.000000000000000E+000
  0.000000000000000E+000
  0.000000000000000E+000
  0.000000000000000E+000
  0.000000000000000E+000
  0.000000000000000E+000
  0.000000000000000E+000
  0.000000000000000E+000
  0.000000000000000E+000
  0.000000000000000E+000
  0.000000000000000E+000
  0.000000000000000E+000
  0.000000000000000E+000
  0.000000000000000E+000
  0.000000000000000E+000
  0.000000000000000E+000
  0.000000000000000E+000
  0.000000000000000E+000