Boundary condition: CritDepth_outlet
VARIABLES="X","Y","Z","Head","Flux (nodal)"
ZONE  T="CritDepth_outlet" , SOLUTIONTIME= 0.10000E+01, I=        11    , DATAPACKING=BLOCK, DT=(DOUBLE DOUBLE)
# X
   66.5060750000000     
   67.4930910000000     
   68.2756910000000     
   68.7061520000000     
   69.1192540000000     
   69.5323560000000     
   69.9531610000000     
   70.3739650000000     
   70.7967240000000     
   72.9066080000000     
   71.2194820000000     
# Y
  0.956907850000000     
   1.64844660000000     
   2.07154270000000     
   2.34163600000000     
   2.60083710000000     
   2.86003820000000     
   3.12407260000000     
   3.38810700000000     
   3.65336700000000     
   4.97721570000000     
   3.91862700000000     
# Z
   3.37617588043213     
   3.17522454261780     
   3.08866500854492     
   3.04885601997375     
   3.01280593872070     
   2.98000001907349     
   3.00223231315613     
   3.02984023094177     
   3.05855441093445     
   3.27833223342896     
   3.09292387962341     
# Head
  1.169240114830951E-004
  1.170654364442289E-004
  1.170832134635103E-004
  1.171054799565301E-004
  1.171379075771840E-004
  1.171508288941562E-004
  1.171154651878404E-004
  1.170878601488397E-004
  1.170549691787611E-004
  1.168580772347659E-004
  1.170453811443630E-004
# Flux
  0.000000000000000E+000
  0.000000000000000E+000
  0.000000000000000E+000
  0.000000000000000E+000
  0.000000000000000E+000
  0.000000000000000E+000
  0.000000000000000E+000
  0.000000000000000E+000
  0.000000000000000E+000
  0.000000000000000E+000
  0.000000000000000E+000
ZONE  T="CritDepth_outlet"  , SOLUTIONTIME= 0.30000E+03  , I=        11, DATAPACKING=BLOCK, DT=(DOUBLE DOUBLE), VARSHARELIST=([1,2,3])
# Head
  4.554295279834104E-004
  5.771664375111821E-004
  1.312761625781504E-003
  1.602916203223631E-003
  1.813417793956863E-003
  2.008498628922912E-003
  1.877268470503551E-003
  1.688392603024306E-003
  1.424189071359722E-003
  4.905626017642522E-004
  1.091695386130674E-003
# Flux
  0.000000000000000E+000
  0.000000000000000E+000
  0.000000000000000E+000
  0.000000000000000E+000
  0.000000000000000E+000
 -3.819047229939145E-008
  0.000000000000000E+000
  0.000000000000000E+000
  0.000000000000000E+000
  0.000000000000000E+000
  0.000000000000000E+000
ZONE  T="CritDepth_outlet"  , SOLUTIONTIME= 0.60000E+03  , I=        11, DATAPACKING=BLOCK, DT=(DOUBLE DOUBLE), VARSHARELIST=([1,2,3])
# Head
  4.711092132225730E-004
  1.162857726926736E-003
  2.043662752988409E-003
  2.038425833544712E-003
  2.041497216273983E-003
  2.620369250654763E-003
  2.106397609383625E-003
  2.071462670912948E-003
  2.044622147413642E-003
  5.086118181743500E-004
  2.117240580446435E-003
# Flux
  0.000000000000000E+000
  0.000000000000000E+000
 -6.314670734616615E-007
 -3.714211518840759E-007
 -4.082534258331698E-007
 -2.381810052359862E-005
 -1.707349541933774E-006
 -9.419992406453775E-007
 -4.658671700623201E-007
  0.000000000000000E+000
 -4.950963017673482E-006
ZONE  T="CritDepth_outlet"  , SOLUTIONTIME= 0.90000E+03  , I=        11, DATAPACKING=BLOCK, DT=(DOUBLE DOUBLE), VARSHARELIST=([1,2,3])
# Head
  4.842446672948215E-004
  1.968481049816896E-003
  2.045747408486014E-003
  2.039350841330576E-003
  2.042447866250808E-003
  3.469381940019915E-003
  2.117059221516791E-003
  2.076614090013198E-003
  2.044172467487751E-003
  5.244238515063786E-004
  2.075798695608292E-003
# Flux
  0.000000000000000E+000
  0.000000000000000E+000
 -6.772262494768313E-007
 -3.849131248641124E-007
 -4.223623404092472E-007
 -8.682279756303679E-005
 -1.970303299864554E-006
 -1.045670023721239E-006
 -4.588427735516832E-007
  0.000000000000000E+000
 -2.573743960548391E-006
ZONE  T="CritDepth_outlet"  , SOLUTIONTIME= 0.12000E+04  , I=        11, DATAPACKING=BLOCK, DT=(DOUBLE DOUBLE), VARSHARELIST=([1,2,3])
# Head
  4.951021368955774E-004
  2.068666338444945E-003
  2.046762292898073E-003
  2.039785848919960E-003
  2.043162193494208E-003
  4.348475760526593E-003
  2.128974107441278E-003
  2.085031987078643E-003
  2.046339545511825E-003
  5.409655644480148E-004
  2.103400772180500E-003
# Flux
  0.000000000000000E+000
 -1.866344030933482E-006
 -6.998866896934081E-007
 -3.913133194283627E-007
 -4.330685565454270E-007
 -1.754328229756019E-004
 -2.278654255650288E-006
 -1.222658521067069E-006
 -4.930194599526969E-007
  0.000000000000000E+000
 -4.100703939217130E-006
ZONE  T="CritDepth_outlet"  , SOLUTIONTIME= 0.15000E+04  , I=        11, DATAPACKING=BLOCK, DT=(DOUBLE DOUBLE), VARSHARELIST=([1,2,3])
# Head
  5.040511615162583E-004
  2.056632108744595E-003
  2.047103454393334E-003
  2.040001130377450E-003
  2.043631691271401E-003
  5.264965967793554E-003
  2.136401782732505E-003
  2.087997213278356E-003
  2.047195266336985E-003
  5.639781804831708E-004
  2.111810447220948E-003
# Flux
  0.000000000000000E+000
 -1.397880244730908E-006
 -7.075598388416451E-007
 -3.944937099679431E-007
 -4.401538073358211E-007
 -2.875740653880454E-004
 -2.478304737174583E-006
 -1.287167499213099E-006
 -5.067386948804807E-007
  0.000000000000000E+000
 -4.611012709303380E-006
ZONE  T="CritDepth_outlet"  , SOLUTIONTIME= 0.30000E+04  , I=        11, DATAPACKING=BLOCK, DT=(DOUBLE DOUBLE), VARSHARELIST=([1,2,3])
# Head
  5.925885551944796E-004
  2.072674915485606E-003
  2.049236410400903E-003
  2.041380337903871E-003
  2.046427907374701E-003
  1.037180049726584E-002
  2.165002722417242E-003
  2.098934365836184E-003
  2.051728150069423E-003
  2.075385382906027E-003
  2.140592411646232E-003
# Flux
  0.000000000000000E+000
 -2.032135536637930E-006
 -7.561598470124677E-007
 -4.150713293259631E-007
 -4.831367298446919E-007
 -1.180755655612880E-003
 -3.297321557923133E-006
 -1.534448964052298E-006
 -5.814693499877126E-007
 -2.041232096366640E-006
 -6.501529888040782E-006
ZONE  T="CritDepth_outlet"  , SOLUTIONTIME= 0.45000E+04  , I=        11, DATAPACKING=BLOCK, DT=(DOUBLE DOUBLE), VARSHARELIST=([1,2,3])
# Head
  2.236049466734024E-005
  2.139301926750586E-004
  7.927731843702418E-004
  1.348027477938067E-003
  1.931934465245639E-003
  5.188490706421954E-003
  2.003658259912703E-003
  1.904376327815435E-003
  1.624179477236433E-003
  4.085728760232293E-005
  1.011034439038315E-003
# Flux
  0.000000000000000E+000
  0.000000000000000E+000
  0.000000000000000E+000
  0.000000000000000E+000
  0.000000000000000E+000
 -2.775296973329267E-004
 -1.088520153982589E-008
  0.000000000000000E+000
  0.000000000000000E+000
  0.000000000000000E+000
  0.000000000000000E+000
ZONE  T="CritDepth_outlet"  , SOLUTIONTIME= 0.60000E+04  , I=        11, DATAPACKING=BLOCK, DT=(DOUBLE DOUBLE), VARSHARELIST=([1,2,3])
# Head
  5.924202508261517E-006
  3.136359571384530E-005
  1.120161611207181E-004
  2.966442648024065E-004
  1.240972143019610E-003
  3.654505264124183E-003
  1.719658371499727E-003
  6.923891059136646E-004
  1.888804603396148E-004
  8.551258918232786E-006
  7.514163304494407E-005
# Flux
  0.000000000000000E+000
  0.000000000000000E+000
  0.000000000000000E+000
  0.000000000000000E+000
  0.000000000000000E+000
 -1.037370655470626E-004
  0.000000000000000E+000
  0.000000000000000E+000
  0.000000000000000E+000
  0.000000000000000E+000
  0.000000000000000E+000
