# vtk DataFile Version 2.0
Export HGS to vtk by Karim Norouzi. Open Source Rocks ;-) ! 
ASCII
DATASET POLYDATA
POINTS 1372 float 
 1.614037   7.891622   4.153804  
 0.725495   8.754786   4.189959  
 0.130238   6.692291   4.381869  
 2.075995   6.893146   4.095369  
 1.325209   5.886703   4.321687  
 0.213972   5.014272   4.641565  
 1.798111   4.862763   4.307668  
 1.428840   3.543642   4.595534  
 2.787773   5.808416   3.859967  
 2.574212   9.146348   4.045078  
 3.114715   8.050746   3.940365  
 1.972085   9.851022   4.081259  
 3.654302   6.946040   3.725396  
 3.101269   4.268601   4.060107  
 3.251142   2.392714   4.563344  
 4.015276   5.715780   3.464257  
 3.709161   10.825479   4.025501  
 4.019968   9.295006   3.961310  
 4.614292   8.142954   3.819777  
 5.131594   7.057457   3.649895  
 4.213311   4.177200   3.741387  
 4.198078   3.232726   4.167820  
 5.073444   1.337698   4.600028  
 5.371054   5.974748   3.296992  
 4.990218   5.106441   3.236116  
 4.906590   10.316109   4.021232  
 5.519888   11.635741   3.985853  
 5.535138   9.273523   3.936891  
 6.172957   8.253044   3.765373  
 6.345995   7.162958   3.470869  
 5.264420   4.024866   3.608903  
 5.553856   2.958524   4.026261  
 6.790614   2.050712   4.247097  
 6.801763   0.596814   4.642417  
 6.568638   6.376749   3.220425  
 6.102260   5.837647   3.202789  
 5.848346   5.150220   3.210276  
 5.890357   4.503129   3.339883  
 6.071747   10.375666   4.033586  
 7.008561   11.046376   4.015353  
 7.402819   12.285027   3.925580  
 7.207933   9.648138   3.965872  
 7.599533   8.403333   3.740259  
 7.739144   7.426057   3.465341  
 7.222382   6.915133   3.325203  
 6.102260   3.811598   3.598059  
 7.183835   3.156559   3.784723  
 8.509146   2.410119   3.939306  
 7.915485   1.293919   4.355715  
 8.494256   0.000000   4.646866  
 7.230717   6.248824   3.155767  
 6.635431   5.700546   3.126394  
 6.528797   4.984574   3.175435  
 6.650664   4.360002   3.324895  
 8.495774   11.140173   3.972861  
 9.285751   12.934314   3.890705  
 8.710862   9.553357   3.913523  
 9.046409   8.390641   3.736453  
 8.462011   7.474062   3.507912  
 7.884461   6.787208   3.271908  
 6.970567   3.811598   3.521551  
 7.721728   3.928492   3.397859  
 8.493913   3.217493   3.686594  
 9.925858   3.293660   3.554086  
 10.200064   2.349509   3.822771  
 9.122760   1.400648   4.191228  
 10.336042   1.042090   4.169722  
 10.585583   0.000000   4.322191  
 7.703723   6.093653   3.089509  
 7.049980   5.555269   3.063115  
 7.091991   4.908178   3.133615  
 7.381081   4.463141   3.224336  
 9.985379   12.016268   3.921888  
 9.921263   10.648344   3.913060  
 11.211058   13.423751   3.871596  
 10.200067   9.339313   3.779812  
 10.569437   8.479485   3.589285  
 9.936121   7.549007   3.474927  
 9.150906   7.571235   3.546496  
 8.573356   6.884381   3.319610  
 8.186027   6.216593   3.103165  
 7.899808   4.497103   3.190345  
 8.570080   3.963932   3.365903  
 9.545021   4.040099   3.333421  
 10.337161   4.116267   3.297513  
 11.281635   3.293660   3.471641  
 11.655591   2.178093   3.775705  
 11.974864   0.963952   4.058483  
 12.577291   0.000000   4.207011  
 8.005289   5.523038   3.005082  
 7.522986   5.400098   3.027019  
 7.812076   4.955061   3.069468  
 11.137465   11.767713   3.913417  
 11.349519   10.461275   3.853829  
 12.192091   12.645715   3.893017  
 13.168356   13.792518   3.831821  
 11.741293   9.329733   3.683767  
 11.540604   8.549203   3.502798  
 11.088261   7.749396   3.307507  
 10.583943   7.671168   3.395370  
 10.557894   7.225876   3.291155  
 9.910073   7.103715   3.333102  
 9.262251   6.981554   3.345444  
 8.874922   6.313766   3.090594  
 8.487593   5.645978   2.980000  
 8.463446   4.573270   3.166312  
 8.294380   5.078002   3.084440  
 9.027084   4.573270   3.202204  
 9.402770   4.669289   3.190958  
 9.883180   4.787423   3.176948  
 10.655078   4.875074   3.160237  
 11.205468   4.192434   3.264654  
 12.165176   4.238134   3.232452  
 12.854635   3.315934   3.425906  
 13.181315   2.144242   3.752615  
 13.637785   0.977301   4.021595  
 14.569000   0.000000   4.128216  
 12.434768   11.481890   3.885789  
 12.873870   10.398941   3.806472  
 13.293930   12.492726   3.882226  
 14.558545   12.876137   3.872153  
 15.125654   14.161284   3.846157  
 13.366610   9.336635   3.641114  
 12.358995   8.568328   3.462426  
 11.928725   7.875199   3.278804  
 11.566529   7.382332   3.149301  
 11.062212   7.304104   3.206468  
 10.969656   6.804748   3.091230  
 10.487352   6.681808   3.103757  
 9.839530   6.559647   3.122510  
 9.357226   6.436706   3.107891  
 9.452201   5.891858   2.980000  
 8.969897   5.768918   2.980000  
 8.845443   5.309718   3.090760  
 8.737648   4.954107   3.125765  
 9.203293   4.973458   3.148438  
 9.683704   5.091592   3.148796  
 10.164115   5.209726   3.138883  
 10.683904   5.288481   3.127421  
 11.174867   4.953830   3.144247  
 11.801411   5.062088   3.109232  
 12.485078   5.136908   3.089539  
 13.140117   4.268601   3.210625  
 14.329156   3.285519   3.460055  
 14.707987   2.207028   3.761569  
 15.091135   1.198010   3.961020  
 16.560708   0.000000   4.111887  
 13.888221   11.564716   3.854814  
 14.428428   10.518640   3.752630  
 16.132570   13.143897   3.872714  
 15.414109   11.819992   3.839896  
 17.085600   14.514369   3.844612  
 14.678696   9.432743   3.568228  
 14.145525   8.808171   3.461630  
 13.246751   8.640603   3.466864  
 13.062530   8.033238   3.328231  
 12.503042   7.938647   3.296149  
 12.140846   7.445780   3.168901  
 11.956277   7.005916   3.065670  
 11.473973   6.882976   3.046249  
 11.381417   6.383619   2.980000  
 10.899113   6.260679   2.980000  
 10.416809   6.137739   2.980000  
 9.934505   6.014799   2.980000  
 9.808158   5.550792   3.100575  
 9.327747   5.432658   3.102870  
 10.290462   5.673732   3.086368  
 10.810251   5.752488   3.075887  
 11.203693   5.367237   3.101126  
 11.830237   5.475495   3.065884  
 13.143832   5.211277   3.082191  
 12.456781   5.583753   3.048386  
 13.977957   4.817006   3.140088  
 14.267393   4.222901   3.244941  
 15.456676   4.321717   3.266068  
 15.864538   3.314588   3.518735  
 16.243586   2.242410   3.770560  
 16.378213   1.001959   3.995491  
 18.016106   1.000166   4.029231  
 18.552417   0.000000   4.166259  
 15.984235   10.690609   3.705483  
 15.836439   9.478443   3.469321  
 17.600076   13.557006   3.844870  
 17.116096   12.101968   3.818821  
 19.055463   14.808716   3.769737  
 15.029066   8.884339   3.403856  
 14.663463   8.396868   3.332757  
 13.977957   8.183600   3.337578  
 13.834139   7.698412   3.218530  
 13.274651   7.603820   3.215195  
 12.715163   7.509228   3.183566  
 12.530594   7.069364   3.067712  
 12.346025   6.629500   2.980000  
 11.863721   6.506560   2.980000  
 11.919099   5.983686   3.024810  
 11.292555   5.875428   3.041883  
 13.074580   5.766892   3.048194  
 13.795156   5.411110   3.079856  
 12.401403   6.106627   3.008229  
 12.893731   6.179009   3.014853  
 14.374099   5.623428   3.076548  
 14.986218   5.027288   3.134714  
 16.019240   5.121675   3.138819  
 16.582878   4.420936   3.264366  
 17.406352   3.363865   3.505896  
 17.716814   2.195527   3.782129  
 19.251298   2.241910   3.787467  
 19.665895   1.043261   3.997058  
 20.544125   0.000000   4.103055  
 17.664454   10.681886   3.650139  
 16.948481   9.539377   3.437200  
 16.537178   8.732004   3.265614  
 15.790739   8.732004   3.308085  
 18.605626   13.200646   3.807824  
 18.793937   12.029534   3.743937  
 20.143358   13.497633   3.781786  
 21.025327   15.103064   3.742115  
 15.251745   8.013435   3.194187  
 14.542942   7.855923   3.220528  
 14.075134   7.306727   3.077866  
 13.582411   7.236338   3.085542  
 13.022923   7.141746   3.077480  
 12.838354   6.701882   2.980000  
 13.511530   6.362148   3.023535  
 13.692379   5.950031   3.059721  
 13.330682   6.774265   2.980000  
 14.839824   6.182897   3.057714  
 14.947821   5.739861   3.069497  
 14.266101   6.066464   3.062543  
 15.507617   5.765608   3.063685  
 17.131283   5.213076   3.127569  
 16.228964   5.798180   3.059857  
 17.786321   4.481870   3.230340  
 18.914710   3.423968   3.506155  
 20.426924   3.475007   3.531856  
 20.770453   2.335246   3.784193  
 21.112464   1.275979   3.966377  
 22.535833   0.000000   4.162546  
 19.087315   10.742424   3.566650  
 18.669862   9.691712   3.382388  
 17.849503   9.596146   3.413466  
 17.290929   8.891422   3.287060  
 16.732356   8.186698   3.136887  
 15.992050   8.100067   3.153158  
 20.275467   11.941075   3.693437  
 21.951462   14.080342   3.782034  
 21.440137   12.870718   3.759659  
 22.995191   15.397411   3.781651  
 15.769385   7.605017   3.055827  
 15.276661   7.534628   3.063310  
 14.783937   7.464239   3.084180  
 14.316130   6.915043   2.980000  
 13.823406   6.844654   2.980000  
 14.004254   6.432537   3.027335  
 15.070701   6.619359   3.022147  
 14.577977   6.548970   3.027988  
 15.399620   6.208644   3.048561  
 15.959415   6.234392   3.040691  
 18.182391   5.350177   3.099389  
 17.652857   5.994221   3.047146  
 16.906450   5.911081   3.052627  
 16.636902   6.347293   3.025779  
 18.867897   4.573270   3.228953  
 19.873305   4.634204   3.248471  
 20.787312   4.710371   3.253304  
 21.952750   3.501055   3.537232  
 22.286001   2.350432   3.792274  
 22.381553   1.060054   4.024840  
 24.020034   1.046116   4.026779  
 24.527542   0.000000   4.128196  
 20.650694   10.677617   3.478266  
 19.614336   9.828813   3.352037  
 19.213498   9.080177   3.241689  
 18.417139   9.096187   3.290215  
 17.954478   9.059402   3.297117  
 18.059454   8.522658   3.185644  
 17.395905   8.354678   3.165973  
 17.001670   7.766573   3.037028  
 16.509690   7.691649   3.032806  
 21.849639   11.786769   3.681505  
 23.499213   14.459225   3.831413  
 23.030755   13.051006   3.771665  
 24.965093   15.691411   3.840498  
[...]
POINT_DATA 1372 
SCALARS WaterDepth float 1
LOOKUP_TABLE default
4.153807
4.189962
4.381872
4.095372
4.321690
4.641568
4.307671
4.595537
3.859970
4.045081
3.940367
4.081262
3.725399
4.060110
4.563347
3.464260
4.025504
3.961313
3.819780
3.649898
3.741390
4.167823
4.600031
3.296998
3.236123
4.021235
3.985856
3.936894
3.765375
3.470872
3.608906
4.026264
4.247099
4.642420
3.220434
3.202799
3.210286
3.339888
4.033589
4.015356
3.925582
3.965875
3.740262
3.465345
3.325208
3.598062
3.784726
3.939309
4.355718
4.646869
3.155781
3.126411
3.175447
3.324901
3.972864
3.890707
3.913526
3.736456
3.507915
3.271915
3.521554
3.397864
3.686597
3.554090
3.822773
4.191231
4.169725
4.322194
3.089535
3.063150
3.133631
3.224345
3.921890
3.913063
3.871599
3.779815
3.589288
3.474930
3.546500
3.319615
3.103190
3.190357
3.365908
3.333427
3.297520
3.471644
3.775708
4.058486
4.207014
3.008660
3.027085
3.069502
3.913420
3.853832
3.893019
3.831824
3.683770
3.502802
3.307513
3.395374
3.291161
3.333107
3.345449
3.090624
3.008610
3.166327
3.084473
3.202216
3.190971
3.176964
3.160256
3.264663
3.232462
3.425910
3.752618
4.021597
4.128219
3.885792
3.806475
3.882229
3.872156
3.846160
3.641117
3.462430
3.278811
3.149318
3.206479
3.091264
3.103786
3.122533
3.107916
3.008605
3.008608
3.090794
3.125787
3.148457
3.148816
3.138905
3.127447
3.144269
3.109265
3.089585
3.210638
3.460058
3.761572
3.961023
4.111889
3.854817
3.752633
3.872717
3.839899
3.844615
3.568231
3.461634
3.466867
3.328236
3.296155
3.168916
3.065720
3.046319
3.008578
3.008586
3.008594
3.008600
3.100609
3.102902
3.086410
3.075939
3.101163
3.065949
3.082246
3.048489
3.140112
3.244950
3.266077
3.518738
3.770563
3.995494
4.029233
4.166262
3.705486
3.469325
3.844873
3.818824
3.769740
3.403860
3.332763
3.337584
3.218541
3.215206
3.183580
3.067764
3.008571
3.008573
3.025006
3.041988
3.048308
3.079917
3.009415
3.015223
3.076621
3.134742
3.138846
3.264375
3.505899
3.782132
3.787470
3.997061
4.103058
3.650142
3.437203
3.265623
3.308091
3.807827
3.743940
3.781789
3.742118
3.194201
3.220539
3.077916
3.085585
3.077526
3.008565
3.023783
3.059814
3.008559
3.057825
3.069583
3.062638
3.063788
3.127601
3.059965
3.230352
3.506158
3.531859
3.784196
3.966380
4.162549
3.566653
3.382393
3.413470
3.287067
3.136911
3.153178
3.693440
3.782037
3.759662
3.781654
3.055907
3.063376
3.084226
3.008528
3.008545
3.027585
3.022457
3.028250
3.048713
3.040890
3.099438
3.047316
3.052759
3.026171
3.228964
3.248482
3.253315
3.537236
3.792277
4.024843
4.026782
4.128199
3.478269
3.352043
3.241700
3.290223
3.297123
3.185660
3.165991
3.037171
3.032959
3.681508
3.831416
3.771668
3.840501
3.008467
3.008477
3.008492
3.008511
3.021502
3.011016
3.101855
3.044213
3.023792
3.023462
3.008467
3.101287
3.099097
3.125156
3.257836
3.279436
3.552087
3.817723
3.811214
4.005751
4.132834
3.509354
3.307040
3.312863
3.329131
3.224566
3.230877
3.160141
3.170260
3.180633
3.068457
3.061607
3.008464
3.008466
3.622828
3.838424
3.728508
3.831600
3.746163
3.044951
3.046241
3.031055
3.009341
3.008464
3.008465
3.047065
3.060619
3.039378
3.056836
3.124143
3.152890
3.315069
3.576436
3.572684
3.798142
3.988754
4.141190
3.410546
3.275023
3.301742
3.169523
3.149456
3.148397
3.150373
3.066476
3.076245
3.065624
3.008461
3.008462
3.558480
3.795865
3.697951
3.529932
3.791854
3.743037
3.668317
3.029494
3.030225
3.008496
3.008452
3.029696
3.031008
3.027822
3.021661
3.013124
3.062334
3.028537
3.025515
3.076093
3.168672
3.323283
3.339496
3.579706
3.817766
4.040014
4.030390
4.095422
3.335622
3.214880
3.256329
3.183270
3.190196
3.096896
3.076558
3.068649
3.067258
3.067406
3.008446
3.008449
3.756281
3.647894
3.512296
3.306786
3.727790
3.710836
3.683417
3.008446
3.008449
3.008442
3.009801
3.008457
3.008438
3.008435
3.036001
3.039610
3.011458
3.008433
3.041683
3.078449
3.159832
3.149247
3.200766
3.403048
3.655194
3.875224
3.934127
4.066133
4.133011
3.196618
3.184173
3.119970
3.144268
3.171189
3.089312
3.098861
3.008429
3.008432
3.008434
3.008437
3.008440
3.008443
3.603187
3.425776
3.311194
3.292164
3.184788
3.734844
3.724181
3.732084
3.716159
3.008433
3.008431
3.018886
3.023781
3.026062
3.008425
3.008428
3.025861
3.040842
3.080202
3.035184
3.082586
3.212931
3.098503
3.521736
3.750939
3.836103
3.982882
4.097005
4.124015
3.124635
3.118526
3.047294
3.055112
3.078707
3.085278
3.008422
3.008426
3.637041
3.392721
3.234612
3.273897
3.182256
3.182972
3.123943
3.730597
3.748548
3.717498
3.008420
3.008414
3.008409
3.008402
3.015814
3.033363
3.008394
3.039890
3.115754
3.269167
3.130939
3.046979
3.052263
3.286474
3.615418
3.668150
3.862248
4.011909
4.113821
4.098016
4.105767
3.054734
3.048875
3.008397
3.008403
3.008407
3.008412
3.008417
3.616226
3.429841
3.248582
3.249791
3.146686
3.161651
3.110407
3.121043
3.046305
3.692978
3.747758
3.729525
3.687172
3.008396
3.008390
3.011107
3.008384
3.016386
3.060145
3.149181
3.086768
3.058615
3.019640
3.019441
3.407967
3.148380
3.469187
3.725017
3.904700
4.029488
4.031718
4.117370
4.155683
3.008387
3.008392
3.549907
3.435874
3.242941
3.250137
3.136303
3.135445
3.047618
3.049312
3.061570
3.047585
3.044492
3.008381
3.684544
3.715521
3.723666
3.676899
3.008378
3.008371
3.023343
3.019382
3.091337
3.030276
3.043413
3.021787
3.008364
3.008356
3.222404
3.247006
3.082386
3.252873
3.538973
3.785278
3.911311
3.897586
4.010620
4.092235
4.071242
3.545514
3.336189
3.367623
3.238537
3.254983
3.142385
3.132755
3.040293
3.046606
3.008331
3.008340
3.008351
3.008360
3.008368
3.008375
3.715418
3.694024
3.594213
3.688855
3.008334
3.008345
3.022974
3.009055
3.008309
3.008325
3.095363
3.109033
3.099869
3.023980
3.030444
3.089664
3.092296
3.266282
3.514024
3.742064
3.747815
3.897196
4.002787
4.068675
4.047182
4.050684
3.382842
3.197424
3.178101
3.171120
3.197918
3.132120
3.143874
3.048973
3.050110
3.008313
3.008321
3.726107
3.695332
3.576898
3.413418
3.733836
3.734279
3.008303
3.008306
3.008314
3.008309
3.040401
3.041329
3.036625
3.008295
3.008286
3.031952
3.127104
3.038478
3.153302
3.309956
3.545455
3.585875
3.788683
3.887655
3.986182
3.942646
3.993406
3.966666
3.235161
3.220734
3.107650
3.088722
3.095533
3.107815
3.038102
3.049039
3.045054
3.008296
3.008303
3.008308
3.696011
3.541672
3.400800
3.256428
3.245718
3.742380
3.687649
3.716855
3.008300
3.008305
3.008277
3.008275
3.008264
3.008290
3.008282
3.008276
3.009025
3.059756
3.076104
3.014477
3.086137
3.085716
3.158825
3.319656
3.292726
3.559356
3.744911
3.858905
3.846100
3.921629
3.951693
3.959361
3.146241
3.133000
3.047521
3.030399
3.024473
3.028189
3.008274
3.008281
3.008289
3.574454
3.368418
3.221514
3.243756
3.163198
3.153649
3.736046
3.674041
3.530157
3.676803
3.008264
3.008256
3.008247
3.008267
3.008228
3.008237
3.029383
3.040348
3.008216
3.078693
3.033513
3.042243
3.065786
3.125392
3.310073
3.144639
3.557734
3.729986
3.753580
3.837200
3.908960
3.953747
3.944033
3.948737
3.067668
3.066194
3.008244
3.008252
3.008259
3.373500
3.374938
3.209926
3.207458
3.137739
3.162997
3.075582
3.067713
3.712416
3.699540
3.522405
3.359324
3.684814
3.658118
3.008215
3.008225
3.008235
3.010883
3.009089
3.008200
3.028724
3.008014
3.008200
3.059370
3.024986
3.166259
3.176917
3.316604
3.065987
3.079119
3.567563
3.545618
3.709633
3.804776
3.881922
3.826810
3.834855
3.772982
3.201245
3.210781
3.216324
3.118378
3.113114
3.042813
3.067016
3.070973
3.672849
3.522630
3.344484
3.189508
3.695283
3.629246
3.675043
3.008106
3.008046
3.007999
3.008010
3.008027
3.021161
3.007981
3.087935
3.081367
3.169214
3.286784
3.018898
3.027007
3.037320
3.311555
3.292815
3.470357
3.648105
3.757241
3.692578
3.736560
3.742285
3.680636
3.110007
3.117417
3.125869
3.040196
3.035298
3.523181
3.355249
3.339327
3.161643
3.168173
3.111150
3.730163
3.646726
3.464471
3.723687
3.007994
3.007966
3.007978
3.039237
3.031025
3.069840
3.147531
3.127507
3.007950
3.008474
3.007940
3.009464
3.172640
3.181851
3.183960
3.245111
3.418334
3.588803
3.519332
3.615705
3.663566
3.692206
3.683440
3.684159
3.035759
3.033530
3.040364
3.044102
3.353761
3.201164
3.197154
3.179559
3.088013
3.102055
3.036512
3.747516
3.714868
3.517246
3.330641
3.757126
3.708984
3.007963
3.012757
3.007617
3.024925
3.058664
3.076905
3.065012
3.007935
3.007950
3.007876
3.007918
3.007782
3.089378
3.101594
3.151301
3.098442
3.129750
3.113815
3.191100
3.362268
3.318544
3.458081
3.592609
3.665761
3.710520
3.750647
3.797058
3.200485
3.132017
3.122054
3.099140
3.032063
3.032275
3.033792
3.750732
3.654097
3.625450
3.345976
3.175369
3.183958
3.726470
3.669475
3.007636
3.007602
3.007614
3.021685
3.026164
3.038794
3.032078
3.049601
3.051191
3.088151
3.078391
3.046443
3.076826
3.091838
3.111596
3.193860
3.205948
3.282051
3.431857
3.609438
3.576811
3.699989
3.778703
3.785394
3.121342
3.049483
3.056279
3.059020
3.038695
3.007576
3.007594
3.746923
3.694164
3.462652
3.417841
3.393791
3.167440
3.091346
3.107176
3.710250
3.677636
3.007582
3.007550
3.007567
3.011347
3.007533
3.012549
3.010882
3.039319
3.034997
3.006893
3.038856
3.052483
3.121226
3.061246
3.121560
3.112472
3.179128
3.146892
3.249446
3.408999
3.354906
3.516551
3.662383
3.771235
3.697549
3.690121
3.042293
3.007345
3.007496
3.007520
3.007537
3.007557
3.722148
3.570275
3.303476
3.327706
3.215277
3.210135
3.187489
3.085891
3.040130
3.043523
3.726066
3.705998
3.759221
3.739965
3.007122
3.006919
3.006871
3.006842
3.006891
3.006827
3.008434
3.012176
3.061113
3.017894
3.062159
3.102131
3.056772
3.083523
3.080949
3.078550
3.150762
3.254726
3.186144
3.150292
3.235332
3.394789
3.592406
3.454752
3.590558
3.562940
3.652760
3.658626
3.299560
3.156326
3.161649
3.184242
3.116578
3.111393
3.104912
3.091550
3.039537
3.678261
3.628761
3.803257
3.732752
3.852929
3.006859
3.006836
3.006812
3.006559
3.006675
3.006352
3.017079
3.006109
3.018396
3.045622
3.015410
3.038828
3.038875
3.041448
3.089359
3.169113
3.104658
3.103546
3.103567
3.086908
3.081212
3.074716
3.097785
3.181931
3.297323
3.267286
3.380090
3.333618
3.540370
3.682914
3.398660
3.246863
3.133750
3.050820
3.075716
3.103639
3.055135
3.053224
3.045328
3.039507
3.509575
3.454128
3.819922
3.732076
3.561797
3.756741
3.047395
3.025620
3.005875
3.015374
3.005642
3.011202
3.005323
3.007638
3.009287
3.010050
3.042474
3.040784
3.039524
3.039284
3.036264
3.032711
3.026430
3.028561
3.023645
3.082977
3.086222
3.169615
3.148965
3.128676
3.217227
3.181420
3.184077
3.303047
3.522093
3.376182
3.253820
3.133775
3.052983
3.012992
3.244928
3.254503
3.757867
3.725299
3.566918
3.299298
3.645421
3.005025
3.014719
3.004775
3.004458
3.004099
3.009271
3.007083
3.006313
3.005053
3.003500
3.002645
3.002600
3.002500
3.002555
3.029884
3.090200
3.031520
3.077616
3.073267
3.112116
3.100263
3.100582
3.110915
3.115738
3.165284
3.235020
3.175256
3.167204
3.149451
3.058851
3.137520
3.114684
3.137442
3.149198
3.703354
3.708539
3.581143
3.350549
3.192057
3.148702
3.654345
3.602899
3.016530
3.018835
3.023198
3.003798
3.003440
3.003094
3.002826
3.002671
3.002613
3.002559
3.002370
3.002420
3.002493
3.032898
3.002266
3.032887
3.033127
3.031861
3.061833
3.066529
3.054304
3.064741
3.074285
3.070861
3.058143
3.121029
3.109766
3.084111
3.088777
3.071018
3.063949
3.038406
3.037844
3.050462
3.060172
3.677324
3.613070
3.404636
3.198345
3.125185
3.121096
3.045495
3.647138
3.663879
3.649553
3.019093
3.017221
3.010956
3.008920
3.013878
3.015562
3.024097
3.002307
3.020389
3.024969
3.002150
3.002188
3.002022
3.002140
3.040420
3.001898
3.015484
3.010514
3.024638
3.026125
3.022807
3.016847
3.013537
3.047398
3.041029
3.044227
3.049153
3.617501
3.467076
3.246130
3.111475
3.119066
3.056747
3.060003
3.054084
3.644646
3.721453
3.693654
3.729795
3.022871
3.002071
3.001958
3.001815
3.001576
3.000200
3.000940
2.999190
2.998083
2.997012
2.995948
3.008706
2.994184
2.995072
3.008642
3.011574
3.014047
3.534411
3.343288
3.223432
3.125550
3.043032
3.052624
3.609995
3.748630
3.724744
3.691308
3.696163
3.015618
3.015478
3.021867
3.016728
3.019990
3.020170
3.017422
3.005442
3.002497
2.997645
2.992923
2.997185
2.996730
2.991214
2.988676
2.983655
3.405349
3.218237
3.128679
3.132933
3.046103
3.530802
3.724966
3.689259
3.599582
3.656278
3.692796
3.049105
3.049554
3.059364
3.060124
3.050412
3.034966
3.026141
3.020391
2.996429
3.017165
3.015752
2.997124
2.995242
3.003952
3.297622
3.208360
3.133753
3.133495
3.378672
3.705591
3.671231
3.552864
3.458443
3.655645
3.104702
3.085841
3.072936
3.015389
3.035446
3.082227
3.015607
3.017901
3.030533
3.166209
3.213886
3.696131
3.688628
3.539176
3.403811
3.317046
3.694337
3.030993
3.063604
3.053804
3.058743
3.145916
3.278341
3.092999
