Boundary condition: Flux_3
VARIABLES="X","Y","Z","Head","Flux (nodal)"
ZONE  T="Flux_3" , SOLUTIONTIME= 0.10000E+01, I=      1372    , DATAPACKING=BLOCK, DT=(DOUBLE DOUBLE)
# X
   1.61403680000000     
  0.725495010000000     
  0.130238330000000     
   2.07599500000000     
   1.32520930000000     
  0.213971640000000     
   1.79811060000000     
   1.42883960000000     
   2.78777310000000     
   2.57421230000000     
   3.11471540000000     
   1.97208460000000     
   3.65430200000000     
   3.10126900000000     
   3.25114170000000     
   4.01527640000000     
   3.70916140000000     
   4.01996800000000     
   4.61429180000000     
   5.13159350000000     
   4.21331130000000     
   4.19807790000000     
   5.07344370000000     
   5.37105400000000     
   4.99021760000000     
   4.90658960000000     
   5.51988800000000     
   5.53513790000000     
   6.17295740000000     
   6.34599530000000     
   5.26441990000000     
   5.55385550000000     
   6.79061430000000     
   6.80176330000000     
   6.56863840000000     
   6.10226000000000     
   5.84834570000000     
   5.89035670000000     
   6.07174720000000     
   7.00856090000000     
   7.40281930000000     
   7.20793340000000     
   7.59953290000000     
   7.73914380000000     
   7.22238200000000     
   6.10226000000000     
   7.18383540000000     
   8.50914620000000     
   7.91548500000000     
   8.49425620000000     
   7.23071740000000     
   6.63543100000000     
   6.52879680000000     
   6.65066440000000     
   8.49577440000000     
   9.28575060000000     
   8.71086150000000     
   9.04640930000000     
   8.46201140000000     
   7.88446110000000     
   6.97056700000000     
   7.72172800000000     
   8.49391270000000     
   9.92585770000000     
   10.2000640000000     
   9.12276000000000     
   10.3360420000000     
   10.5855830000000     
   7.70372330000000     
   7.04997970000000     
   7.09199070000000     
   7.38108140000000     
   9.98537880000000     
   9.92126260000000     
   11.2110580000000     
   10.2000670000000     
   10.5694370000000     
   9.93612140000000     
   9.15090630000000     
   8.57335600000000     
   8.18602730000000     
   7.89980790000000     
   8.57008000000000     
   9.54502120000000     
   10.3371610000000     
   11.2816350000000     
   11.6555910000000     
   11.9748640000000     
   12.5772910000000     
   8.00528950000000     
   7.52298560000000     
   7.81207640000000     
   11.1374650000000     
   11.3495190000000     
   12.1920910000000     
   13.1683560000000     
   11.7412930000000     
   11.5406040000000     
   11.0882610000000     
   10.5839430000000     
   10.5578940000000     
   9.91007260000000     
   9.26225090000000     
   8.87492220000000     
   8.48759350000000     
   8.46344580000000     
   8.29438030000000     
   9.02708370000000     
   9.40276960000000     
   9.88318050000000     
   10.6550780000000     
   11.2054680000000     
   12.1651760000000     
   12.8546350000000     
   13.1813150000000     
   13.6377850000000     
   14.5690000000000     
   12.4347680000000     
   12.8738700000000     
   13.2939300000000     
   14.5585450000000     
   15.1256540000000     
   13.3666100000000     
   12.3589950000000     
   11.9287250000000     
   11.5665290000000     
   11.0622120000000     
   10.9696560000000     
   10.4873520000000     
   9.83953010000000     
   9.35722610000000     
   9.45220130000000     
   8.96989740000000     
   8.84544330000000     
   8.73764800000000     
   9.20329310000000     
   9.68370400000000     
   10.1641150000000     
   10.6839040000000     
   11.1748670000000     
   11.8014110000000     
   12.4850780000000     
   13.1401170000000     
   14.3291560000000     
   14.7079870000000     
   15.0911350000000     
   16.5607080000000     
   13.8882210000000     
   14.4284280000000     
   16.1325700000000     
   15.4141090000000     
   17.0856000000000     
   14.6786960000000     
   14.1455250000000     
   13.2467510000000     
   13.0625300000000     
   12.5030420000000     
   12.1408460000000     
   11.9562770000000     
   11.4739730000000     
   11.3814170000000     
   10.8991130000000     
   10.4168090000000     
   9.93450530000000     
   9.80815810000000     
   9.32774720000000     
   10.2904620000000     
   10.8102510000000     
   11.2036930000000     
   11.8302370000000     
   13.1438320000000     
   12.4567810000000     
   13.9779570000000     
   14.2673930000000     
   15.4566760000000     
   15.8645380000000     
   16.2435860000000     
   16.3782130000000     
   18.0161060000000     
   18.5524170000000     
   15.9842350000000     
   15.8364390000000     
   17.6000760000000     
   17.1160960000000     
   19.0554630000000     
   15.0290660000000     
   14.6634630000000     
   13.9779570000000     
   13.8341390000000     
   13.2746510000000     
   12.7151630000000     
   12.5305940000000     
   12.3460250000000     
   11.8637210000000     
   11.9190990000000     
   11.2925550000000     
   13.0745800000000     
   13.7951560000000     
   12.4014030000000     
   12.8937310000000     
   14.3740990000000     
   14.9862180000000     
   16.0192400000000     
   16.5828780000000     
   17.4063520000000     
   17.7168140000000     
   19.2512980000000     
   19.6658950000000     
   20.5441250000000     
   17.6644540000000     
   16.9484810000000     
   16.5371780000000     
   15.7907390000000     
   18.6056260000000     
   18.7939370000000     
   20.1433580000000     
   21.0253270000000     
   15.2517450000000     
   14.5429420000000     
   14.0751340000000     
   13.5824110000000     
   13.0229230000000     
   12.8383540000000     
   13.5115300000000     
   13.6923790000000     
   13.3306820000000     
   14.8398240000000     
   14.9478210000000     
   14.2661010000000     
   15.5076170000000     
   17.1312830000000     
   16.2289640000000     
   17.7863210000000     
   18.9147100000000     
   20.4269240000000     
   20.7704530000000     
   21.1124640000000     
   22.5358330000000     
   19.0873150000000     
   18.6698620000000     
   17.8495030000000     
   17.2909290000000     
   16.7323560000000     
   15.9920500000000     
   20.2754670000000     
   21.9514620000000     
   21.4401370000000     
   22.9951910000000     
   15.7693850000000     
   15.2766610000000     
   14.7839370000000     
   14.3161300000000     
   13.8234060000000     
   14.0042540000000     
   15.0707010000000     
   14.5779770000000     
   15.3996200000000     
   15.9594150000000     
   18.1823910000000     
   17.6528570000000     
   16.9064500000000     
   16.6369020000000     
   18.8678970000000     
   19.8733050000000     
   20.7873120000000     
   21.9527500000000     
   22.2860010000000     
   22.3815530000000     
   24.0200340000000     
   24.5275420000000     
   20.6506940000000     
   19.6143360000000     
   19.2134980000000     
   18.4171390000000     
   17.9544780000000     
   18.0594540000000     
   17.3959050000000     
   17.0016700000000     
   16.5096900000000     
   21.8496390000000     
   23.4992130000000     
   23.0307550000000     
   24.9650930000000     
   16.2870250000000     
   15.7943010000000     
   15.3015770000000     
   14.8088530000000     
   15.6304960000000     
   16.1232200000000     
   19.1268660000000     
   18.3551870000000     
   18.0167190000000     
   17.3143880000000     
   16.8007070000000     
   20.2084410000000     
   20.9396470000000     
   21.7317870000000     
   22.0059890000000     
   23.1301600000000     
   23.4767690000000     
   23.7510530000000     
   25.2959160000000     
   25.6763750000000     
   26.5192500000000     
   22.2079080000000     
   21.7165530000000     
   20.9091800000000     
   20.3607760000000     
   20.3160800000000     
   19.7332870000000     
   19.5045630000000     
   18.9847740000000     
   18.5221140000000     
   18.1546250000000     
   17.6652200000000     
   17.2709850000000     
   16.7790050000000     
   23.3735640000000     
   24.5236410000000     
   24.7480110000000     
   25.7264750000000     
   26.9515530000000     
   19.6672450000000     
   19.1799820000000     
   18.7190490000000     
   18.4844220000000     
   17.7820920000000     
   17.2926870000000     
   20.2264120000000     
   21.6099190000000     
   20.9387180000000     
   22.4782260000000     
   22.7676620000000     
   24.2453070000000     
   24.6658000000000     
   24.9911980000000     
   26.5272270000000     
   26.8289250000000     
   27.1324140000000     
   28.5109590000000     
   23.7690110000000     
   23.1066940000000     
   22.3457300000000     
   21.8354200000000     
   21.1899390000000     
   20.6071450000000     
   20.0243520000000     
   19.5960950000000     
   19.1066900000000     
   18.6172850000000     
   18.2497960000000     
   17.7603910000000     
   24.6566100000000     
   25.7731670000000     
   26.1419320000000     
   25.7991200000000     
   26.7270280000000     
   27.8810270000000     
   28.9380130000000     
   19.6935770000000     
   19.2063130000000     
   18.9738270000000     
   18.7392010000000     
   20.2527440000000     
   21.5207130000000     
   21.9853730000000     
   20.8119100000000     
   21.2765700000000     
   23.6359690000000     
   23.1982140000000     
   22.4815350000000     
   24.8241780000000     
   25.4944510000000     
   26.2086020000000     
   27.5509670000000     
   28.0586870000000     
   28.3404820000000     
   28.3895030000000     
   30.0208820000000     
   30.5026670000000     
   25.3047310000000     
   24.5804430000000     
   23.8577030000000     
   23.2319110000000     
   22.4809020000000     
   22.3229700000000     
   21.6774880000000     
   21.1880830000000     
   20.6052890000000     
   20.1158840000000     
   19.7180110000000     
   19.2286060000000     
   27.2619720000000     
   27.7820650000000     
   27.0330300000000     
   26.3835420000000     
   28.9078050000000     
   29.7351640000000     
   30.9244730000000     
   19.9504970000000     
   19.4610920000000     
   20.5096640000000     
   21.7412300000000     
   22.2373920000000     
   20.9990690000000     
   21.4637280000000     
   23.7101270000000     
   24.3480500000000     
   23.2454670000000     
   22.7335540000000     
   25.2333900000000     
   25.9209870000000     
   26.5760260000000     
   27.5662010000000     
   28.7544100000000     
   29.2792010000000     
   29.5656910000000     
   29.7899530000000     
   31.3218060000000     
   31.6749530000000     
   32.4943760000000     
   25.9437410000000     
   25.3245320000000     
   25.2222400000000     
   24.6025800000000     
   23.9829200000000     
   23.5663930000000     
   22.8153840000000     
   22.6574520000000     
   22.1650380000000     
   21.6756320000000     
   21.1862270000000     
   20.6968220000000     
   20.2074170000000     
   29.3296780000000     
   28.5106750000000     
   27.7923430000000     
   27.0562130000000     
   26.8469290000000     
   30.4203170000000     
   30.5374820000000     
   31.7982180000000     
   32.9109330000000     
   21.9531340000000     
   22.4492960000000     
   23.7573810000000     
   24.3953030000000     
   25.0332260000000     
   23.4536230000000     
   22.9417100000000     
   25.7400990000000     
   25.9402630000000     
   26.8912180000000     
   26.7014970000000     
   27.7642360000000     
   29.7750520000000     
   28.9067450000000     
   30.7783180000000     
   31.0541970000000     
   32.5780420000000     
   32.8570020000000     
   33.1394590000000     
   34.4860840000000     
   26.4606570000000     
   25.8414480000000     
   25.6636030000000     
   25.1710860000000     
   24.5514260000000     
   24.0589100000000     
   23.6423830000000     
   23.1498660000000     
   30.8845390000000     
   29.7554540000000     
   29.4498690000000     
   28.6926360000000     
   28.3380940000000     
   27.4720640000000     
   27.0857910000000     
   32.1073310000000     
   33.4144710000000     
   34.8993390000000     
   23.9461400000000     
   24.5840630000000     
   25.0765790000000     
   25.7834530000000     
   26.4469730000000     
   27.4442730000000     
   27.1897490000000     
   28.0993720000000     
   29.8055190000000     
   30.7652270000000     
   30.5367250000000     
   28.7696440000000     
   29.2571150000000     
   31.9867340000000     
   32.2971230000000     
   33.8288420000000     
   34.1160030000000     
   34.3770640000000     
   34.3958190000000     
   36.0290630000000     
   36.4777930000000     
   26.7755740000000     
   26.2828110000000     
   26.1049650000000     
   25.6124490000000     
   25.1199320000000     
   24.6274160000000     
   24.1348990000000     
   32.3856980000000     
   31.2318470000000     
   30.7128140000000     
   29.9720590000000     
   29.6580520000000     
   29.0488410000000     
   28.3507860000000     
   27.7109260000000     
   27.4007090000000     
   33.6318370000000     
   35.0260410000000     
   36.2672500000000     
   36.8906980000000     
   26.2759690000000     
   26.7687320000000     
   27.9325240000000     
   27.5115080000000     
   28.3535450000000     
   29.8969200000000     
   31.4811990000000     
   31.3288650000000     
   30.5062580000000     
   28.7745660000000     
   29.3138260000000     
   33.5143840000000     
   32.3647400000000     
   35.0505530000000     
   35.3709680000000     
   35.6406390000000     
   35.8338360000000     
   37.3668390000000     
   37.6808510000000     
   38.4695010000000     
   27.0904910000000     
   26.5977280000000     
   33.8357380000000     
   32.6279560000000     
   32.0477390000000     
   31.3486890000000     
   30.8245380000000     
   30.1886630000000     
   30.1194080000000     
   29.5972180000000     
   29.1039410000000     
   28.3872620000000     
   27.8939850000000     
   27.5837680000000     
   35.0631440000000     
   37.7220340000000     
   36.5619130000000     
   38.8820560000000     
   28.0047840000000     
   28.4258060000000     
   30.3461170000000     
   29.8530860000000     
   32.1514710000000     
   31.6027590000000     
   31.0866140000000     
   30.8391470000000     
   28.9190820000000     
   29.4583420000000     
   33.4615490000000     
   34.7154590000000     
   32.9283780000000     
   36.2166350000000     
   36.5750950000000     
   36.8917750000000     
   37.1399340000000     
   38.6592200000000     
   38.8939770000000     
   39.1420690000000     
   40.4612100000000     
   35.3236720000000     
   35.0013410000000     
   33.8083020000000     
   33.3435590000000     
   32.7849990000000     
   32.1976730000000     
   31.4604130000000     
   31.2485590000000     
   30.6126840000000     
   30.5434290000000     
   30.0501520000000     
   29.5568750000000     
   29.0635980000000     
   28.5703210000000     
   28.0770450000000     
   39.3695460000000     
   38.0829430000000     
   36.8343300000000     
   40.8734140000000     
   30.4446500000000     
   29.9516190000000     
   32.4125370000000     
   31.3552930000000     
   31.8714380000000     
   30.9379270000000     
   33.8423850000000     
   34.7868590000000     
   35.4723650000000     
   32.8359290000000     
   33.4604470000000     
   36.2645050000000     
   36.9195430000000     
   37.7444170000000     
   38.1102360000000     
   38.4192740000000     
   39.9388920000000     
   40.1819470000000     
   40.3990970000000     
   40.3852970000000     
   42.0105230000000     
   42.4529180000000     
   36.1943790000000     
   35.7884850000000     
   35.1945640000000     
   34.7247320000000     
   34.0671770000000     
   33.6585510000000     
   32.9349330000000     
   32.4788670000000     
   31.7416070000000     
   31.5297540000000     
   31.0367060000000     
   41.0046610000000     
   39.6108110000000     
   38.3463350000000     
   37.1335800000000     
   42.2511660000000     
   42.8647730000000     
   32.7182210000000     
   32.2948300000000     
   31.4540720000000     
   31.9471190000000     
   34.1606410000000     
   34.8491610000000     
   35.5784680000000     
   33.3427400000000     
   33.9672580000000     
   36.3047920000000     
   37.8030840000000     
   37.0413570000000     
   38.7581430000000     
   39.2678150000000     
   39.6389350000000     
   41.1856270000000     
   41.4655050000000     
   41.6826970000000     
   41.8345350000000     
   43.3591490000000     
   43.6606610000000     
   44.4446270000000     
   36.7987270000000     
   36.3682640000000     
   35.9016120000000     
   35.3218330000000     
   34.8520010000000     
   34.3821690000000     
   34.1875180000000     
   33.4639000000000     
   32.9713830000000     
   33.0078340000000     
   32.5153180000000     
   32.0228010000000     
   41.0527560000000     
   39.6920330000000     
   38.5804560000000     
   37.9979320000000     
   37.2537370000000     
   43.6949270000000     
   42.5419510000000     
   44.8538850000000     
   32.8630280000000     
   32.3705110000000     
   34.6557780000000     
   35.3442980000000     
   36.0706220000000     
   33.4875460000000     
   33.9800630000000     
   34.4725790000000     
   36.7969460000000     
   37.7757460000000     
   38.5321680000000     
   37.5313340000000     
   39.8407700000000     
   39.0753100000000     
   40.3319380000000     
   40.8363450000000     
   42.0532180000000     
   42.7178340000000     
   42.9658670000000     
   43.1604570000000     
   44.6661390000000     
   44.8802580000000     
   45.1215590000000     
   46.4363350000000     
   36.9364020000000     
   36.4813920000000     
   36.2221630000000     
   35.6423830000000     
   35.1498670000000     
   34.6800350000000     
   34.4853840000000     
   33.9928670000000     
   33.5003510000000     
   41.3127420000000     
   40.1288680000000     
   39.5025250000000     
   38.7559150000000     
   38.1493950000000     
   37.3914110000000     
   45.3170480000000     
   44.0365190000000     
   42.8006060000000     
   46.8404530000000     
   35.1610990000000     
   35.6536160000000     
   36.3799400000000     
   34.9779000000000     
   37.3736110000000     
   36.8758850000000     
   38.2657230000000     
   38.8088650000000     
   38.1080000000000     
   40.4346910000000     
   39.9459280000000     
   39.3520080000000     
   41.1196280000000     
   41.6518950000000     
   43.3328290000000     
   42.4035880000000     
   44.2386300000000     
   44.4607900000000     
   45.9758110000000     
   46.1860010000000     
   46.3849080000000     
   46.3630570000000     
   47.9824310000000     
   48.4280440000000     
   37.1731180000000     
   36.7181080000000     
   36.4588790000000     
   35.9629330000000     
   35.4704170000000     
   42.4035880000000     
   41.2610790000000     
   40.9691370000000     
   40.2298550000000     
   39.6347080000000     
   38.9073780000000     
   38.4288270000000     
   37.6708440000000     
   46.9275450000000     
   45.5289030000000     
   44.2788440000000     
   43.5613300000000     
   48.1411450000000     
   48.8270210000000     
   37.9502770000000     
   37.4525510000000     
   36.9548240000000     
   38.6057260000000     
   39.1488680000000     
   38.4480030000000     
   40.5398490000000     
   40.2405150000000     
   39.6465950000000     
   41.7276900000000     
   41.1479100000000     
   43.3906850000000     
   44.1402020000000     
   44.5362720000000     
   42.3569630000000     
   43.2341080000000     
   45.7423580000000     
   47.2789740000000     
   47.4893210000000     
   47.6781720000000     
   47.8119360000000     
   49.3244570000000     
   49.6233910000000     
   50.4197520000000     
   43.1970890000000     
   42.4714810000000     
   41.7270200000000     
   41.1199210000000     
   40.3620380000000     
   40.1516100000000     
   39.4242800000000     
   38.9265540000000     
   46.9326590000000     
   45.7198180000000     
   44.5667390000000     
   43.9273950000000     
   49.5732470000000     
   48.3670420000000     
   50.8135880000000     
   38.9457290000000     
   39.4434550000000     
   40.7382410000000     
   40.4389080000000     
   39.9411820000000     
   41.7559720000000     
   41.3463030000000     
   43.8574430000000     
   44.7097390000000     
   45.0999100000000     
   45.9072830000000     
   42.3852440000000     
   43.0145170000000     
   43.6378530000000     
   47.0337150000000     
   48.5850600000000     
   48.7980680000000     
   48.9771060000000     
   49.1430030000000     
   50.6215640000000     
   50.8224240000000     
   51.0669070000000     
   52.4114600000000     
   43.3290210000000     
   42.6034130000000     
   41.8778040000000     
   41.4072190000000     
   40.6493360000000     
   47.1728540000000     
   46.7755900000000     
   45.6330810000000     
   45.4204860000000     
   44.6835310000000     
   44.0851570000000     
   51.1612910000000     
   49.7629820000000     
   48.5984390000000     
   52.8001560000000     
   40.9366340000000     
   41.8440290000000     
   41.4343600000000     
   44.2611880000000     
   44.8186230000000     
   45.2671740000000     
   45.7244810000000     
   46.5775550000000     
   42.4733020000000     
   43.4687540000000     
   42.9710280000000     
   44.0920900000000     
   47.7440060000000     
   48.5435960000000     
   49.2035750000000     
   50.0981200000000     
   50.2672720000000     
   50.4365680000000     
   51.9190340000000     
   52.1111800000000     
   52.3021160000000     
   52.2981640000000     
   53.9019230000000     
   54.4031690000000     
   43.6260060000000     
   43.1282800000000     
   42.4026720000000     
   41.9049450000000     
   47.8876320000000     
   47.6315020000000     
   46.8791610000000     
   46.1494370000000     
   45.5702450000000     
   44.8412940000000     
   44.3821430000000     
   52.4017590000000     
   50.9867920000000     
   49.9858250000000     
   49.1215420000000     
   53.5049370000000     
   54.7802260000000     
   41.9320860000000     
   44.5898160000000     
   45.1472510000000     
   45.3760580000000     
   45.9035170000000     
   47.3538760000000     
   46.7033920000000     
   42.9275390000000     
   42.4298130000000     
   43.9229910000000     
   43.4252650000000     
   44.4230740000000     
   48.1022630000000     
   48.6961830000000     
   49.9904720000000     
   49.3850220000000     
   50.4981480000000     
   51.0565920000000     
   51.5394450000000     
   51.7152670000000     
   53.2125940000000     
   53.3924480000000     
   53.5619850000000     
   53.7010200000000     
   55.1879200000000     
   55.5272250000000     
   56.3948770000000     
   48.3546850000000     
   47.8038780000000     
   47.0515370000000     
   46.2991950000000     
   46.1065460000000     
   45.3775950000000     
   44.8798690000000     
   54.0491920000000     
   52.8833720000000     
   51.4332510000000     
   50.3331540000000     
   49.7868000000000     
   49.0700110000000     
   55.3154770000000     
   56.7588320000000     
   44.9184440000000     
   45.6449770000000     
   45.4161700000000     
   46.0124020000000     
   46.6487450000000     
   47.9497140000000     
   47.2992300000000     
   48.5436340000000     
   49.1375550000000     
   49.9365200000000     
   50.4385240000000     
   49.6890530000000     
   51.0500990000000     
   51.6784950000000     
   52.1861710000000     
   52.8207660000000     
   53.7068130000000     
   54.5294200000000     
   54.8259610000000     
   54.9885730000000     
   56.4330310000000     
   56.6532610000000     
   56.9363120000000     
   58.3865860000000     
   48.5192050000000     
   48.3390220000000     
   47.8462990000000     
   47.3535750000000     
   46.6012340000000     
   46.4085840000000     
   45.9138960000000     
   55.6504060000000     
   54.3590560000000     
   53.2163550000000     
   52.0768330000000     
   51.1932920000000     
   50.4524760000000     
   49.9002080000000     
   49.2345320000000     
   57.2426370000000     
   58.7374380000000     
   46.2813210000000     
   47.2687320000000     
   46.7760080000000     
   48.4119410000000     
   47.9192170000000     
   49.0058610000000     
   49.4985850000000     
   50.2405500000000     
   50.8521250000000     
   50.0500820000000     
   51.4637010000000     
   52.0541080000000     
   52.7961790000000     
   52.6445140000000     
   53.5301180000000     
   54.2339810000000     
   54.6360540000000     
   55.4891270000000     
   55.6262280000000     
   56.0222980000000     
   57.5151770000000     
   57.8858850000000     
   58.1031750000000     
   58.1501860000000     
   59.6826130000000     
   60.3782940000000     
   49.0543490000000     
   48.8741670000000     
   48.3814430000000     
   47.8887190000000     
   47.3959950000000     
   46.9032720000000     
   55.8437350000000     
   54.6835990000000     
   54.1028830000000     
   52.9756070000000     
   52.2750140000000     
   51.6658030000000     
   51.1073590000000     
   50.5658840000000     
   50.2127490000000     
   49.5470730000000     
   58.7662230000000     
   57.1657130000000     
   60.0952950000000     
   60.7160440000000     
   49.3668910000000     
   49.8596150000000     
   50.5428060000000     
   51.1543810000000     
   50.3295430000000     
   51.6351450000000     
   52.1141120000000     
   52.7045180000000     
   53.3784530000000     
   53.1834850000000     
   54.1123920000000     
   54.7161650000000     
   54.5945760000000     
   55.2605930000000     
   56.0923850000000     
   55.6986060000000     
   56.0984660000000     
   56.5707030000000     
   57.4781520000000     
   58.7251290000000     
   59.1012250000000     
   59.3043310000000     
   59.4774620000000     
   60.9275030000000     
   61.1332510000000     
   62.3684260000000     
   62.8116440000000     
   56.1055390000000     
   55.0037720000000     
   54.4712510000000     
   53.7544250000000     
   53.0608000000000     
   52.5336340000000     
   52.1089260000000     
   51.6842170000000     
   51.1250510000000     
   50.7054730000000     
   59.0170840000000     
   57.6171060000000     
   61.5229850000000     
   60.4226120000000     
   62.6946500000000     
   50.8450620000000     
   51.3258260000000     
   51.8065890000000     
   52.7645220000000     
   52.2855560000000     
   53.2434890000000     
   53.9174240000000     
   53.7224560000000     
   54.3963910000000     
   55.0767600000000     
   54.8785740000000     
   55.5147730000000     
   55.9527860000000     
   56.3465660000000     
   56.5775680000000     
   56.7839710000000     
   57.1092490000000     
   57.5424060000000     
   57.9834390000000     
   58.6069270000000     
   59.0322090000000     
   59.5204960000000     
   59.7085440000000     
   60.2836020000000     
   60.7422220000000     
   61.6129770000000     
   62.3460330000000     
   63.7816990000000     
   63.9843870000000     
   65.0815290000000     
   56.4385430000000     
   55.9302810000000     
   55.1564270000000     
   54.6060610000000     
   53.9208840000000     
   53.2272600000000     
   52.6490780000000     
   52.1701120000000     
   51.7454030000000     
   51.2646400000000     
   59.2766840000000     
   57.9233200000000     
   63.0871670000000     
   61.8318880000000     
   60.6296320000000     
   64.6358290000000     
   53.3427030000000     
   53.8216700000000     
   54.2014220000000     
   54.3006370000000     
   54.6803890000000     
   55.3573080000000     
   55.1591220000000     
   55.7953210000000     
   56.2734940000000     
   56.6672730000000     
   56.7403450000000     
   57.1735020000000     
   57.6066600000000     
   58.0476930000000     
   58.4887260000000     
   58.9140070000000     
   59.3392890000000     
   60.3158620000000     
   59.8275760000000     
   60.3994050000000     
   60.9664480000000     
   61.0831910000000     
   61.7558620000000     
   62.4919920000000     
   62.5269840000000     
   63.5323930000000     
   64.7257660000000     
   65.2741740000000     
   65.1123270000000     
   66.5060750000000     
   56.8859400000000     
   56.0885880000000     
   55.2912370000000     
   54.9858130000000     
   59.4230990000000     
   58.1098550000000     
   64.6228110000000     
   63.2433790000000     
   62.0106840000000     
   60.7847770000000     
   66.5680940000000     
   55.6378560000000     
   55.4645460000000     
   56.1160280000000     
   56.5942010000000     
   57.0723730000000     
   57.1454460000000     
   57.5786030000000     
   58.0567760000000     
   58.4978090000000     
   58.9759810000000     
   59.4012630000000     
   59.8621560000000     
   60.8072840000000     
   60.3504420000000     
   60.8829050000000     
   61.5908670000000     
   61.4499470000000     
   62.1131640000000     
   62.7077540000000     
   63.1265870000000     
   63.8685560000000     
   64.5293020000000     
   65.0097130000000     
   65.6161330000000     
   65.8428710000000     
   66.4899400000000     
   67.4930910000000     
   57.3935980000000     
   56.7816400000000     
   55.9842890000000     
   60.0069040000000     
   59.3260650000000     
   58.7196450000000     
   58.0630230000000     
   65.7310440000000     
   64.5932320000000     
   63.4033030000000     
   62.1905030000000     
   61.6924020000000     
   60.6290750000000     
   66.9944530000000     
   68.5003600000000     
   56.1575980000000     
   56.6357710000000     
   57.1139430000000     
   57.5505460000000     
   58.0287190000000     
   58.5068910000000     
   58.9850640000000     