# vtk DataFile Version 2.0
Export to vtk by Karim Norouzi. Open Source Rocks ;-) ! 
ASCII
DATASET UNSTRUCTURED_GRID
POINTS 21952 float 
 1.614037   7.891622   0.000000  
 0.725495   8.754786   0.000000  
 0.130238   6.692291   0.000000  
 2.075995   6.893146   0.000000  
 1.325209   5.886703   0.000000  
 0.213972   5.014272   0.000000  
 1.798111   4.862763   0.000000  
 1.428840   3.543642   0.000000  
 2.787773   5.808416   0.000000  
 2.574212   9.146348   0.000000  
 3.114715   8.050746   0.000000  
 1.972085   9.851022   0.000000  
 3.654302   6.946040   0.000000  
 3.101269   4.268601   0.000000  
 3.251142   2.392714   0.000000  
 4.015276   5.715780   0.000000  
 3.709161   10.825479   0.000000  
 4.019968   9.295006   0.000000  
 4.614292   8.142954   0.000000  
 5.131594   7.057457   0.000000  
 4.213311   4.177200   0.000000  
 4.198078   3.232726   0.000000  
 5.073444   1.337698   0.000000  
 5.371054   5.974748   0.000000  
 4.990218   5.106441   0.000000  
 4.906590   10.316109   0.000000  
 5.519888   11.635741   0.000000  
 5.535138   9.273523   0.000000  
 6.172957   8.253044   0.000000  
 6.345995   7.162958   0.000000  
 5.264420   4.024866   0.000000  
 5.553856   2.958524   0.000000  
 6.790614   2.050712   0.000000  
 6.801763   0.596814   0.000000  
 6.568638   6.376749   0.000000  
 6.102260   5.837647   0.000000  
 5.848346   5.150220   0.000000  
 5.890357   4.503129   0.000000  
 6.071747   10.375666   0.000000  
 7.008561   11.046376   0.000000  
 7.402819   12.285027   0.000000  
 7.207933   9.648138   0.000000  
 7.599533   8.403333   0.000000  
 7.739144   7.426057   0.000000  
 7.222382   6.915133   0.000000  
 6.102260   3.811598   0.000000  
 7.183835   3.156559   0.000000  
 8.509146   2.410119   0.000000  
 7.915485   1.293919   0.000000  
 8.494256   0.000000   0.000000  
 7.230717   6.248824   0.000000  
 6.635431   5.700546   0.000000  
 6.528797   4.984574   0.000000  
 6.650664   4.360002   0.000000  
 8.495774   11.140173   0.000000  
 9.285751   12.934314   0.000000  
 8.710862   9.553357   0.000000  
 9.046409   8.390641   0.000000  
 8.462011   7.474062   0.000000  
 7.884461   6.787208   0.000000  
 6.970567   3.811598   0.000000  
 7.721728   3.928492   0.000000  
 8.493913   3.217493   0.000000  
 9.925858   3.293660   0.000000  
 10.200064   2.349509   0.000000  
 9.122760   1.400648   0.000000  
 10.336042   1.042090   0.000000  
 10.585583   0.000000   0.000000  
 7.703723   6.093653   0.000000  
 7.049980   5.555269   0.000000  
 7.091991   4.908178   0.000000  
 7.381081   4.463141   0.000000  
 9.985379   12.016268   0.000000  
 9.921263   10.648344   0.000000  
 11.211058   13.423751   0.000000  
 10.200067   9.339313   0.000000  
 10.569437   8.479485   0.000000  
 9.936121   7.549007   0.000000  
 9.150906   7.571235   0.000000  
 8.573356   6.884381   0.000000  
 8.186027   6.216593   0.000000  
 7.899808   4.497103   0.000000  
 8.570080   3.963932   0.000000  
 9.545021   4.040099   0.000000  
 10.337161   4.116267   0.000000  
 11.281635   3.293660   0.000000  
 11.655591   2.178093   0.000000  
 11.974864   0.963952   0.000000  
 12.577291   0.000000   0.000000  
 8.005289   5.523038   0.000000  
 7.522986   5.400098   0.000000  
 7.812076   4.955061   0.000000  
 11.137465   11.767713   0.000000  
 11.349519   10.461275   0.000000  
 12.192091   12.645715   0.000000  
 13.168356   13.792518   0.000000  
 11.741293   9.329733   0.000000  
 11.540604   8.549203   0.000000  
 11.088261   7.749396   0.000000  
 10.583943   7.671168   0.000000  
 10.557894   7.225876   0.000000  
 9.910073   7.103715   0.000000  
 9.262251   6.981554   0.000000  
 8.874922   6.313766   0.000000  
 8.487593   5.645978   0.000000  
 8.463446   4.573270   0.000000  
 8.294380   5.078002   0.000000  
 9.027084   4.573270   0.000000  
 9.402770   4.669289   0.000000  
 9.883180   4.787423   0.000000  
 10.655078   4.875074   0.000000  
 11.205468   4.192434   0.000000  
 12.165176   4.238134   0.000000  
 12.854635   3.315934   0.000000  
 13.181315   2.144242   0.000000  
 13.637785   0.977301   0.000000  
 14.569000   0.000000   0.000000  
 12.434768   11.481890   0.000000  
 12.873870   10.398941   0.000000  
 13.293930   12.492726   0.000000  
 14.558545   12.876137   0.000000  
 15.125654   14.161284   0.000000  
 13.366610   9.336635   0.000000  
 12.358995   8.568328   0.000000  
 11.928725   7.875199   0.000000  
 11.566529   7.382332   0.000000  
 11.062212   7.304104   0.000000  
 10.969656   6.804748   0.000000  
 10.487352   6.681808   0.000000  
 9.839530   6.559647   0.000000  
 9.357226   6.436706   0.000000  
 9.452201   5.891858   0.000000  
 8.969897   5.768918   0.000000  
 8.845443   5.309718   0.000000  
 8.737648   4.954107   0.000000  
 9.203293   4.973458   0.000000  
 9.683704   5.091592   0.000000  
 10.164115   5.209726   0.000000  
 10.683904   5.288481   0.000000  
 11.174867   4.953830   0.000000  
 11.801411   5.062088   0.000000  
 12.485078   5.136908   0.000000  
 13.140117   4.268601   0.000000  
 14.329156   3.285519   0.000000  
 14.707987   2.207028   0.000000  
 15.091135   1.198010   0.000000  
 16.560708   0.000000   0.000000  
 13.888221   11.564716   0.000000  
 14.428428   10.518640   0.000000  
 16.132570   13.143897   0.000000  
 15.414109   11.819992   0.000000  
 17.085600   14.514369   0.000000  
 14.678696   9.432743   0.000000  
 14.145525   8.808171   0.000000  
 13.246751   8.640603   0.000000  
 13.062530   8.033238   0.000000  
 12.503042   7.938647   0.000000  
 12.140846   7.445780   0.000000  
 11.956277   7.005916   0.000000  
 11.473973   6.882976   0.000000  
 11.381417   6.383619   0.000000  
 10.899113   6.260679   0.000000  
 10.416809   6.137739   0.000000  
 9.934505   6.014799   0.000000  
 9.808158   5.550792   0.000000  
 9.327747   5.432658   0.000000  
 10.290462   5.673732   0.000000  
 10.810251   5.752488   0.000000  
 11.203693   5.367237   0.000000  
 11.830237   5.475495   0.000000  
 13.143832   5.211277   0.000000  
 12.456781   5.583753   0.000000  
 13.977957   4.817006   0.000000  
 14.267393   4.222901   0.000000  
 15.456676   4.321717   0.000000  
 15.864538   3.314588   0.000000  
 16.243586   2.242410   0.000000  
 16.378213   1.001959   0.000000  
 18.016106   1.000166   0.000000  
 18.552417   0.000000   0.000000  
 15.984235   10.690609   0.000000  
 15.836439   9.478443   0.000000  
 17.600076   13.557006   0.000000  
 17.116096   12.101968   0.000000  
 19.055463   14.808716   0.000000  
 15.029066   8.884339   0.000000  
 14.663463   8.396868   0.000000  
 13.977957   8.183600   0.000000  
 13.834139   7.698412   0.000000  
 13.274651   7.603820   0.000000  
 12.715163   7.509228   0.000000  
 12.530594   7.069364   0.000000  
 12.346025   6.629500   0.000000  
 11.863721   6.506560   0.000000  
 11.919099   5.983686   0.000000  
 11.292555   5.875428   0.000000  
 13.074580   5.766892   0.000000  
 13.795156   5.411110   0.000000  
 12.401403   6.106627   0.000000  
 12.893731   6.179009   0.000000  
 14.374099   5.623428   0.000000  
 14.986218   5.027288   0.000000  
 16.019240   5.121675   0.000000  
 16.582878   4.420936   0.000000  
 17.406352   3.363865   0.000000  
 17.716814   2.195527   0.000000  
 19.251298   2.241910   0.000000  
 19.665895   1.043261   0.000000  
 20.544125   0.000000   0.000000  
 17.664454   10.681886   0.000000  
 16.948481   9.539377   0.000000  
 16.537178   8.732004   0.000000  
 15.790739   8.732004   0.000000  
 18.605626   13.200646   0.000000  
 18.793937   12.029534   0.000000  
 20.143358   13.497633   0.000000  
 21.025327   15.103064   0.000000  
 15.251745   8.013435   0.000000  
 14.542942   7.855923   0.000000  
 14.075134   7.306727   0.000000  
 13.582411   7.236338   0.000000  
 13.022923   7.141746   0.000000  
 12.838354   6.701882   0.000000  
 13.511530   6.362148   0.000000  
 13.692379   5.950031   0.000000  
 13.330682   6.774265   0.000000  
 14.839824   6.182897   0.000000  
 14.947821   5.739861   0.000000  
 14.266101   6.066464   0.000000  
 15.507617   5.765608   0.000000  
 17.131283   5.213076   0.000000  
 16.228964   5.798180   0.000000  
 17.786321   4.481870   0.000000  
 18.914710   3.423968   0.000000  
 20.426924   3.475007   0.000000  
 20.770453   2.335246   0.000000  
 21.112464   1.275979   0.000000  
 22.535833   0.000000   0.000000  
 19.087315   10.742424   0.000000  
 18.669862   9.691712   0.000000  
 17.849503   9.596146   0.000000  
 17.290929   8.891422   0.000000  
 16.732356   8.186698   0.000000  
 15.992050   8.100067   0.000000  
 20.275467   11.941075   0.000000  
 21.951462   14.080342   0.000000  
 21.440137   12.870718   0.000000  
 22.995191   15.397411   0.000000  
 15.769385   7.605017   0.000000  
 15.276661   7.534628   0.000000  
 14.783937   7.464239   0.000000  
 14.316130   6.915043   0.000000  
 13.823406   6.844654   0.000000  
 14.004254   6.432537   0.000000  
 15.070701   6.619359   0.000000  
 14.577977   6.548970   0.000000  
 15.399620   6.208644   0.000000  
 15.959415   6.234392   0.000000  
 18.182391   5.350177   0.000000  
 17.652857   5.994221   0.000000  
 16.906450   5.911081   0.000000  
 16.636902   6.347293   0.000000  
 18.867897   4.573270   0.000000  
 19.873305   4.634204   0.000000  
 20.787312   4.710371   0.000000  
 21.952750   3.501055   0.000000  
 22.286001   2.350432   0.000000  
 22.381553   1.060054   0.000000  
 24.020034   1.046116   0.000000  
 24.527542   0.000000   0.000000  
 20.650694   10.677617   0.000000  
 19.614336   9.828813   0.000000  
 19.213498   9.080177   0.000000  
 18.417139   9.096187   0.000000  
 17.954478   9.059402   0.000000  
 18.059454   8.522658   0.000000  
 17.395905   8.354678   0.000000  
 17.001670   7.766573   0.000000  
 16.509690   7.691649   0.000000  
 21.849639   11.786769   0.000000  
 23.499213   14.459225   0.000000  
 23.030755   13.051006   0.000000  
 24.965093   15.691411   0.000000  
[...]
POINT_DATA 21952 
SCALARS PMHead float 1
LOOKUP_TABLE default
2.790799
2.789850
2.789788
2.792576
2.791614
2.790898
2.793466
2.793791
2.797195
2.791803
2.794795
2.791178
2.800674
2.798679
2.800287
2.807431
2.793324
2.795340
2.802508
2.813848
2.806436
2.803965
2.805116
2.823052
2.818043
2.795868
2.795871
2.801693
2.813031
2.826452
2.815297
2.810888
2.812191
2.809119
2.836220
2.832996
2.829085
2.825771
2.798819
2.799051
2.798105
2.806939
2.822267
2.837558
2.838858
2.821971
2.824156
2.823731
2.812675
2.810817
2.846059
2.840494
2.837550
2.833406
2.802083
2.799701
2.815479
2.834257
2.844332
2.848454
2.830202
2.839425
2.834975
2.847172
2.832623
2.817254
2.819085
2.817046
2.853406
2.846419
2.844234
2.843188
2.802393
2.810479
2.801533
2.827948
2.846530
2.858765
2.849810
2.854872
2.858517
2.849644
2.848224
2.858513
2.867211
2.856708
2.836407
2.823780
2.822237
2.859106
2.852573
2.853719
2.806237
2.819062
2.804716
2.804089
2.839687
2.854243
2.867560
2.863474
2.872044
2.866542
2.861059
2.865853
2.865092
2.856685
2.860620
2.862660
2.867731
2.874361
2.883205
2.875958
2.884376
2.865791
2.840831
2.827248
2.825076
2.812812
2.828352
2.808065
2.808749
2.806627
2.852847
2.861882
2.874079
2.881110
2.876663
2.884703
2.880547
2.874247
2.869942
2.875642
2.870288
2.868217
2.864271
2.869456
2.875748
2.881941
2.888003
2.889093
2.896816
2.903674
2.890772
2.867809
2.843891
2.830294
2.824653
2.817530
2.835412
2.810978
2.820771
2.809009
2.862210
2.872978
2.868623
2.882102
2.878669
2.886258
2.893111
2.889650
2.895387
2.890707
2.885859
2.880797
2.879917
2.874147
2.885590
2.891512
2.893993
2.901310
2.908897
2.907908
2.905570
2.892372
2.896633
2.869058
2.844898
2.829176
2.828204
2.824541
2.842455
2.870868
2.812253
2.823862
2.810610
2.879413
2.888685
2.887460
2.897821
2.894418
2.890934
2.898107
2.903226
2.899572
2.903554
2.896931
2.913535
2.914553
2.907893
2.912380
2.920195
2.912860
2.916838
2.900240
2.869978
2.843169
2.843008
2.827637
2.823645
2.853766
2.879142
2.897744
2.890663
2.817163
2.832320
2.817566
2.812371
2.904244
2.901052
2.908602
2.905333
2.901725
2.907036
2.916336
2.918062
2.910897
2.925348
2.923362
2.921820
2.926087
2.920975
2.928910
2.902525
2.870418
2.871222
2.843778
2.828748
2.821642
2.862220
2.889219
2.885274
2.900249
2.913384
2.908908
2.840196
2.817150
2.828921
2.814143
2.917867
2.914920
2.912031
2.917439
2.914207
2.919576
2.925784
2.922918
2.928418
2.931168
2.925701
2.935797
2.932028
2.934510
2.905314
2.907548
2.909918
2.870361
2.843138
2.826551
2.824678
2.820488
2.873609
2.892155
2.910863
2.904186
2.901244
2.916360
2.914885
2.924702
2.922321
2.850429
2.817484
2.830677
2.815192
2.928817
2.926055
2.923247
2.920237
2.929207
2.931810
2.929940
2.938643
2.941114
2.937984
2.935059
2.935159
2.938223
2.934059
2.908271
2.905908
2.869159
2.840244
2.838717
2.822825
2.817861
2.876132
2.901922
2.897615
2.894228
2.911783
2.911852
2.923001
2.921691
2.919006
2.928267
2.926402
2.933410
2.931114
2.859040
2.822476
2.841214
2.819132
2.817797
2.944999
2.941895
2.943982
2.942750
2.939680
2.937283
2.947011
2.946256
2.950294
2.949581
2.935019
2.934893
2.904876
2.867314
2.865433
2.837332
2.822108
2.813225
2.887872
2.909935
2.904611
2.923483
2.923898
2.924048
2.924134
2.933602
2.932331
2.930805
2.937292
2.935259
2.867209
2.830046
2.849454
2.872888
2.822633
2.822096
2.819119
2.948083
2.946072
2.944595
2.939032
2.949945
2.952070
2.954026
2.951469
2.952879
2.952306
2.957780
2.955402
2.953632
2.934440
2.903220
2.899400
2.860667
2.833151
2.817907
2.813075
2.808896
2.896125
2.915281
2.911860
2.925194
2.923168
2.936193
2.936211
2.935753
2.935715
2.934698
2.942009
2.940625
2.833679
2.853166
2.878434
2.903629
2.830911
2.822682
2.821339
2.947621
2.946123
2.949179
2.954102
2.955313
2.950330
2.951158
2.958527
2.960536
2.958081
2.956554
2.962108
2.955399
2.935457
2.934443
2.929294
2.889065
2.851558
2.826058
2.820319
2.808835
2.804448
2.920452
2.919740
2.932038
2.929702
2.927225
2.939042
2.937107
2.947417
2.946471
2.945777
2.945032
2.944060
2.943157
2.856756
2.884983
2.905861
2.907234
2.924414
2.826749
2.838744
2.825896
2.822263
2.952132
2.952902
2.959411
2.960937
2.962387
2.955907
2.954017
2.963384
2.962944
2.955173
2.963628
2.954486
2.926357
2.951376
2.875030
2.841898
2.834523
2.816252
2.806611
2.800478
2.933279
2.932750
2.943879
2.943275
2.941134
2.940009
2.949485
2.948490
2.861997
2.889857
2.911518
2.908749
2.927412
2.925764
2.934485
2.840015
2.826944
2.822670
2.956981
2.958522
2.959466
2.960311
2.964091
2.963821
2.964349
2.963099
2.946397
2.912930
2.942390
2.961451
2.960708
2.902218
2.863198
2.854461
2.828818
2.812414
2.803431
2.800639
2.798166
2.944863
2.944489
2.953522
2.952899
2.952406
2.951398
2.950521
2.864555
2.887577
2.911729
2.909509
2.927657
2.928046
2.938110
2.935644
2.945829
2.841837
2.828641
2.830801
2.824461
2.960550
2.960992
2.964148
2.961096
2.963965
2.958659
2.932079
2.948014
2.957501
2.963484
2.962809
2.890198
2.928132
2.880216
2.847121
2.823703
2.808461
2.806286
2.798973
2.796596
2.954291
2.953934
2.867505
2.888706
2.913865
2.912502
2.929084
2.928261
2.942674
2.944263
2.944365
2.946241
2.946075
2.954397
2.844805
2.829479
2.845354
2.825342
2.961041
2.961167
2.961053
2.961704
2.945272
2.956967
2.957429
2.960053
2.960871
2.959848
2.921982
2.916425
2.945336
2.910180
2.873732
2.842327
2.820228
2.818513
2.805548
2.798835
2.795529
2.869124
2.890656
2.890762
2.913261
2.912345
2.928172
2.929636
2.942288
2.941956
2.952913
2.953603
2.954079
2.954372
2.954333
2.954430
2.830235
2.844416
2.869002
2.825491
2.958952
2.959243
2.955561
2.958976
2.957890
2.958077
2.941792
2.937813
2.936909
2.954393
2.953143
2.934552
2.934709
2.906806
2.870354
2.839615
2.838384
2.817809
2.804979
2.797804
2.797315
2.795595
2.890096
2.912509
2.913101
2.913844
2.913648
2.927012
2.926703
2.939843
2.941283
2.951074
2.952098
2.831480
2.845317
2.868511
2.891075
2.833426
2.826891
2.955776
2.956712
2.956510
2.955466
2.951156
2.949179
2.947934
2.954635
2.953574
2.947299
2.932006
2.946536
2.930722
2.905165
2.868769
2.867588
2.837485
2.816924
2.803817
2.804025
2.797627
2.796138
2.911298
2.911556
2.925418
2.926147
2.926811
2.927307
2.937878
2.937835
2.938680
2.947999
2.948866
2.950067
2.847502
2.870759
2.890574
2.911637
2.911332
2.832119
2.848439
2.827797
2.953368
2.954384
2.952325
2.951260
2.950589
2.952347
2.951385
2.950750
2.950132
2.944720
2.944646
2.949455
2.944615
2.944249
2.931014
2.904149
2.906302
2.867716
2.837154
2.816593
2.817604
2.805457
2.799171
2.797259
2.924536
2.924498
2.934661
2.935467
2.936495
2.937043
2.945275
2.946251
2.947083
2.871594
2.892325
2.912531
2.911369
2.924402
2.924595
2.833144
2.848089
2.873241
2.828418
2.950157
2.949464
2.948638
2.944594
2.948436
2.948234
2.949052
2.949008
2.948625
2.944179
2.949267
2.949129
2.944269
2.929543
2.907419
2.930397
2.867479
2.837256
2.839633
2.820038
2.807341
2.799703
2.801506
2.800022
2.934371
2.934406
2.942527
2.942901
2.943744
2.893192
2.892459
2.914958
2.914178
2.926113
2.924302
2.934659
2.934813
2.834847
2.849268
2.873945
2.894056
2.836549
2.829330
2.942954
2.942391
2.942238
2.948740
2.948934
2.943232
2.949319
2.949465
2.949200
2.944129
2.949509
2.930823
2.931251
2.908274
2.944015
2.944887
2.868293
2.873578
2.844381
2.823221
2.808832
2.812605
2.804702
2.803908
2.917233
2.915458
2.914757
2.927565
2.927610
2.937288
2.935938
2.935159
2.851948
2.875603
2.894167
2.917905
2.833531
2.851961
2.827559
2.943606
2.943970
2.949670
2.944918
2.944601
2.949498
2.949858
2.945205
2.946531
2.932997
2.908758
2.949478
2.950120
2.950295
2.906740
2.915926
2.883300
2.851523
2.827923
2.835064
2.818448
2.809662
2.809011
2.930236
2.928841
2.927391
2.937594
2.937725
2.877386
2.896813
2.896493
2.918150
2.917248
2.930131
2.831965
2.849138
2.877712
2.824160
2.945305
2.949979
2.945437
2.950742
2.951187
2.947357
2.932587
2.933578
2.950272
2.950741
2.950346
2.951097
2.933752
2.936182
2.938891
2.927752
2.894325
2.860311
2.871722
2.844239
2.825123
2.812850
2.818790
2.817320
2.939766
2.939445
2.938285
2.937816
2.896566
2.920262
2.919962
2.919451
2.931093
2.929742
2.939648
2.835803
2.848622
2.874936
2.897286
2.826494
2.821973
2.945607
2.951329
2.951484
2.951667
2.947845
2.948109
2.947332
2.946186
2.945603
2.946918
2.946528
2.947372
2.949245
2.949768
2.943993
2.951120
2.946432
2.949578
2.937479
2.905452
2.916862
2.883439
2.853011
2.830476
2.839237
2.827365
2.828429
2.920801
2.932552
2.932375
2.932110
2.940870
2.939923
2.939692
2.832182
2.856031
2.865953
2.898071
2.920338
2.921942
2.823810
2.819057
2.947140
2.951733
2.947188
2.951968
2.952787
2.953916
2.953368
2.954431
2.955085
2.951616
2.952883
2.955588
2.953996
2.953982
2.952906
2.941221
2.938830
2.924414
2.894379
2.862303
2.874257
2.851211
2.838898
2.843294
2.934162
2.943879
2.942724
2.941714
2.941507
2.947988
2.947481
2.828861
2.850110
2.884236
2.891519
2.893833
2.921568
2.936857
2.935249
2.823463
2.815752
2.952234
2.953554
2.952663
2.954699
2.954166
2.955299
2.955788
2.956195
2.957115
2.956346
2.958112
2.958374
2.952378
2.958363
2.953044
2.954302
2.942618
2.945968
2.928492
2.901747
2.916002
2.890129
2.865989
2.848043
2.864353
2.866165
2.944976
2.951826
2.950960
2.950290
2.949300
2.948574
2.843788
2.875878
2.905220
2.904604
2.924078
2.923101
2.922053
2.937908
2.946648
2.945486
2.823637
2.839001
2.822557
2.813849
2.952316
2.952786
2.956839
2.957580
2.953306
2.958152
2.959049
2.959789
2.959011
2.960307
2.959594
2.954742
2.960126
2.956526
2.957253
2.956898
2.945968
2.929796
2.944714
2.951223
2.935494
2.908171
2.881268
2.904471
2.887770
2.901396
2.901635
2.867636
2.904358
2.928565
2.930369
2.928915
2.942015
2.940798
2.939850
2.938923
2.946734
2.844453
2.853629
2.817606
2.839502
2.811195
2.953284
2.954028
2.954755
2.956641
2.955569
2.957461
2.961026
2.958320
2.961517
2.960783
2.961990
2.961256
2.961783
2.962176
2.957147
2.944352
2.956066
2.957360
2.958299
2.960696
2.962129
2.963123
2.958328
2.945757
2.929371
2.939485
2.924533
2.943096
2.925955
2.935204
2.896522
2.914532
2.931368
2.947401
2.945041
2.943475
2.950491
2.949368
2.948478
2.947602
2.875495
2.882324
2.815391
2.834417
2.870921
2.809511
2.951831
2.952849
2.958962
2.954092
2.959851
2.962499
2.960507
2.962972
2.963534
2.964050
2.962501
2.963508
2.964584
2.965430
2.966473
2.967629
2.968966
2.971572
2.970038
2.963739
2.965783
2.952383
2.958935
2.964983
2.950633
2.960351
2.969985
2.962479
2.944671
2.967985
2.919702
2.936189
2.949508
2.955761
2.916266
2.918482
2.813722
2.831496
2.865853
2.914251
2.807340
2.961206
2.956608
2.961850
2.962542
2.963364
2.964840
2.965725
2.966791
2.967893
2.969169
2.970403
2.971773
2.974706
2.973330
2.973162
2.968355
2.974947
2.971375
2.973815
2.969806
2.973963
2.978821
2.979948
2.982538
2.979380
2.977659
2.986743
2.938000
2.938086
2.951067
2.941863
2.941880
2.939576
2.939774
2.814220
2.829762
2.861000
2.908212
2.941577
2.944340
2.809750
2.804512
2.957878
2.958670
2.959841
2.964490
2.965573
2.966802
2.968072
2.969456
2.971064
2.972724
2.976433
2.975928
2.974340
2.976023
2.977753
2.977165
2.980135
2.978563
2.977210
2.978239
2.982349
2.983532
2.984584
2.986237
2.988280
2.985081
2.987655
2.990082
2.991012
2.954306
2.952650
2.962605
2.960314
2.958169
2.956019
2.824330
2.852516
2.896488
2.942034
2.957987
2.956081
2.964777
2.814123
2.807897
2.801990
2.961350
2.962579
2.964498
2.965880
2.967964
2.969829
2.971720
2.977344
2.975474
2.973566
2.979007
2.978866
2.980256
2.982817
2.981161
2.981621
2.984956
2.983883
2.985958
2.986840
2.988028
2.988821
2.989522
2.989426
2.990355
2.990620
2.989916
2.840614
2.882424
2.934244
2.961249
2.959607
2.970790
2.969048
2.966720
2.828257
2.805552
2.820005
2.799115
2.976977
2.980211
2.981481
2.982635
2.983769
2.985643
2.984652
2.986418
2.987137
2.987703
2.988159
2.989849
2.988234
2.988285
2.989571
2.988601
2.986929
2.866877
2.917711
2.944418
2.962376
2.974228
2.972363
2.849335
2.801467
2.814257
2.828361
2.796273
2.978396
2.979893
2.981013
2.981992
2.983140
2.983837
2.984472
2.985305
2.985673
2.985864
2.987580
2.985543
2.984817
2.986371
2.984694
2.982124
2.901815
2.950131
2.967511
2.963349
2.975687
2.870846
2.802761
2.826299
2.846545
2.793921
2.795215
2.976945
2.978618
2.979293
2.979657
2.980789
2.981438
2.981961
2.981825
2.983568
2.980818
2.979833
2.981463
2.979124
2.975435
2.923074
2.946971
2.966929
2.967571
2.898233
2.797923
2.814928
2.844447
2.870536
2.790086
2.968675
2.969582
2.968735
2.977584
2.970994
2.964378
2.974906
2.971576
2.966902
2.948730
2.930159
2.791316
2.800848
2.827865
2.861069
2.892507
2.788841
2.967989
2.961716
2.960481
2.956258
2.933709
2.883755
2.944624
2.790543
2.789598
2.789510
2.792324
2.791323
2.790567
2.793147
2.793413
2.797009
2.791538
2.794547
2.790915
2.800529
2.798379
2.799817
2.807566
2.793022
2.795048
2.802282
2.813907
2.806295
2.803590
2.804465
2.823512
2.818385
2.795534
2.795512
2.801367
2.812848
2.826716
2.815307
2.810526
2.811600
2.808333
2.836775
2.833592
2.829617
2.826121
2.798440
2.798644
2.797697
2.806522
2.822049
2.837802
2.839299
2.822032
2.823985
2.823257
2.811923
2.809928
2.846716
2.841167
2.838164
2.833817
2.801626
2.799262
2.815009
2.834051
2.844571
2.848996
2.830368
2.839744
2.834901
2.847191
2.832167
2.816517
2.818302
2.816199
2.854132
2.847144
2.844892
2.843735
2.801919
2.809958
2.801063
2.827519
2.846442
2.859097
2.850034
2.855396
2.859244
2.850246
2.848596
2.858963
2.867713
2.856810
2.835904
2.822980
2.821367
2.859902
2.853335
2.854445
2.805718
2.818514
2.804201
2.803576
2.839345
2.854237
2.867935
2.863822
2.872597
2.867076
2.861576
2.866582
2.865903
2.857326
2.861391
2.863317
2.868417
2.875085
2.883963
2.876516
2.885001
2.865987
2.840309
2.826416
2.824164
2.812236
2.827788
2.807508
2.808176
2.806069
2.852591
2.861959
2.874480
2.881703
2.877239
2.885445
2.881283
2.874963
2.870655
2.876454
2.871096
2.869019
2.865022
2.870215
2.876531
2.882749
2.888834
2.889884
2.897670
2.904570
2.891410
2.867843
2.843304
2.829445
2.823715
2.816917
2.834854
2.810374
2.820138
2.808419
2.862098
2.873102
2.868732
2.882522
2.879088
2.886866
2.893860
2.890407
2.896245
2.891554
2.886693
2.881617
2.880745
2.874962
2.886436
2.892382
2.894857
2.902221
2.909803
2.908853
2.906336
2.892889
2.897097
2.868911
2.844236
2.828291
2.827296
2.823594
2.841944
2.870881
2.811637
2.823207
2.810015
2.879620
2.889078
2.887887
2.898441
2.895035
2.891554
2.898864
2.904083
2.900433
2.904476
2.897826
2.914491
2.915464
2.908823
2.913318
2.921123
2.913627
2.917568
2.900685
2.869785
2.842454
2.842274
2.826730
2.822710
2.853339
2.879291
2.898198
2.891027
2.816521
2.831680
2.816917
2.811751
2.904845
2.901658
2.909357
2.906088
2.902483
2.907893
2.917262
2.919012
2.911756
2.926273
2.924268
2.922762
2.926972
2.921685
2.929760
2.902948
2.870180
2.870944
2.843038
2.827853
2.820715
2.861938
2.889514
2.885502
2.900724
2.914020
2.909522
2.839591
2.816482
2.828233
2.813477
2.918598
2.915653
2.912769
2.918289
2.915063
2.920497
2.926672
2.923823
2.929324
2.932049
2.926439
2.936627
2.932856
2.935363
2.905742
2.907998
2.910383
2.870031
2.842385
2.825653
2.823794
2.819593
2.873521
2.892453
2.911427
2.904698
2.901714
2.917000
2.915520
2.925432
2.923052
2.849865
2.816790
2.829966
2.814497
2.929620
2.926869
2.924074
2.921076
2.930080
2.932664
2.930711
2.939475
2.941945
2.938821
2.935887
2.935960
2.939027
2.934797
2.908669
2.906294
2.868823
2.839477
2.837960
2.821972
2.817012
2.875975
2.902246
2.897916
2.894508
2.912302
2.912400
2.923662
2.922359
2.919661
2.928994
2.927126
2.934194
2.931905
2.858588
2.821751
2.840541
2.818412
2.817089
2.945843
2.942730
2.944812
2.943554
2.940489
2.938100
2.947849
2.947063
2.951109
2.950386
2.935757
2.935621
2.905264
2.866951
2.865084
2.836605
2.821292
2.812447
2.887978
2.910338
2.904934
2.924037
2.924488
2.924667
2.924783
2.934325
2.933061
2.931538
2.938066
2.936036
2.866907
2.829308
2.848841
2.872646
2.821901
2.821372
2.818412
2.948901
2.946896
2.945394
2.939802
2.950751
2.952861
2.954802
2.952258
2.953647
2.953116
2.958539
2.956165
2.954462
2.935178
2.903626
2.899809
2.860279
2.832428
2.817127
2.812352
2.808203
2.896337
2.915751
2.912286
2.925738
2.923693
2.936815
2.936859
2.936422
2.936411
2.935407
2.942765
2.941390
2.832954
2.852613
2.878267
2.903908
2.830185
2.821951
2.820602
2.948401
2.946913
2.949943
2.954850
2.956043
2.951075
2.951883
2.959293
2.961310
2.958801
2.957272
2.962889
2.956249
2.936219
2.935194
2.929972
2.889233
2.851029
2.825323
2.819593
2.808167
2.803832
2.920942
2.920235
2.932629
2.930283
2.927788
2.939665
2.937723
2.948077
2.947143
2.946466
2.945741
2.944787
2.943899
2.856280
2.885059
2.906188
2.907546
2.924916
2.826000
2.838022
2.825133
2.821508
2.952838
2.953592
2.960138
2.961669
2.963122
2.956592
2.954700
2.964110
2.963718
2.956019
2.964399
2.955330
2.926981
2.952210
2.874810
2.841240
2.833828
2.815554
2.805981
2.799944
2.933858
2.933337
2.944520
2.943919
2.941773
2.940639
2.950143
2.949147
2.861541
2.890041
2.911973
2.909144
2.927961
2.926279
2.935062
2.839279
2.826177
2.821912
2.957667
2.959212
2.960156
2.960992
2.964804
2.964587
2.965055
2.963876
2.947188
2.913351
2.943158
2.962238
2.961504
2.902547
2.862806
2.853970
2.828116
2.811752
2.802856
2.800120
2.797688
2.945492
2.945123
2.954180
2.953563
2.953073
2.952064
2.951182
2.864125
2.887626
2.912161
2.909938
2.928239
2.928621
2.938720
2.936230
2.946457
2.841130
2.827873
2.830015
2.823683
2.961227
2.961662
2.964855
2.961763
2.964680
2.959462
2.932767
2.948808
2.958294
2.964208
2.963533
2.890394
2.928802
2.880157
2.846533
2.823004
2.807846
2.805709
2.798492
2.796158
2.954940
2.954587
2.867178
2.888765
2.914298
2.912917
2.929665
2.928846
2.943326
2.944918
2.945012
2.946881
2.946707
2.955046
2.844133
2.828689
2.844657
2.824555
2.961711
2.961843
2.961781
2.962427
2.946063
2.957729
2.958200
2.960785
2.961554
2.960534
2.922583
2.916931
2.946126
2.910607
2.873510
2.841697
2.819550
2.817862
2.804994
2.798369
2.795129
2.868857
2.890826
2.890897
2.913707
2.912759
2.928738
2.930210
2.942932
2.942603
2.953586
2.954276
2.954750
2.955037
2.954991
2.955082
2.829442
2.843697
2.868677
2.824696
2.959646
2.959934
2.956315
2.959699
2.958606
2.958770
2.942558
2.938539
2.937649
2.955147
2.953899
2.935282
2.935468
2.907234
2.870136
2.839001
2.837761
2.817167
2.804441
2.797365
2.796894
2.795205
2.890242
2.912987
2.913579
2.914329
2.914110
2.927591
2.927264
2.940483
2.941922
2.951743
2.952769
2.830679
2.844609
2.868161
2.891210
2.832616
2.826074
2.956492
2.957428
2.957198
2.956153
2.951915
2.949936
2.948701
2.955356
2.954299
2.948073
2.932737
2.947328
2.931457
2.905602
2.868514
2.867291
2.836851
2.816292
2.803302
2.803517
2.797211
2.795750
2.911751
2.912014
2.926012
2.926743
2.927408
2.927900
2.938528
2.938476
2.939317
2.948671
2.949535
2.950736
2.846798
2.870476
2.890691
2.912091
2.911776
2.831305
2.847757
2.826971
2.954058
2.955072
2.953054
2.951998
2.951333
2.953043
2.952084
2.951450
2.950885
2.945513
2.945459
2.950225
2.945447
2.945067
2.931760
2.904578
2.906755
2.867424
2.836525
2.815972
2.816976
2.804933
2.798732
2.796852
2.925122
2.925083
2.935314
2.936120
2.937148
2.937694
2.945955
2.946929
2.947759
2.871291
2.892499
2.913010
2.911815
2.924991
2.925181
2.832325
2.847404
2.873011
2.827600
2.950863
2.950173
2.949353
2.945276
2.949167
2.948956
2.949846
2.949814
2.949376
2.944999
2.950081
2.949943
2.945094
2.930286
2.907892
2.931143
2.867164
2.836619
2.838979
2.819387
2.806791
2.799256
2.801033
2.799573
2.935027
2.935060
2.943216
2.943586
2.944427
2.893377
2.892593
2.915451
2.914669
2.926728
2.924894
2.935327
2.935475
2.834041
2.848574
2.873733
2.894256
2.835756
2.828518
2.943663
2.943090
2.942931
2.949502
2.949705
2.943949
2.950127
2.950236
2.949974
2.944948
2.950312
2.931557
2.931985
2.908733
2.944828
2.945704
2.867937
2.873312
2.843749
2.822555
2.808268
2.812013
2.804200
2.803425
2.917757
2.915956
2.915247
2.928183
2.928234
2.937980
2.936624
2.935834
2.851293
2.875380
2.894364
2.918431
2.832732
2.851348
2.826750
2.944331
2.944701
2.950437
2.945648
2.945334
2.950296
2.950619
2.946021
2.947345
2.933728
2.909171
2.950273
2.950922
2.951100
2.907113
2.916380
2.883214
2.850953
2.827251
2.834401
2.817822
2.809110
2.808465
2.930871
2.929466
2.928007
2.938279
2.938416
2.877218
2.897033
2.896682
2.918656
2.917753
2.930761
2.831155
2.848473
2.877615