 variables="Simulation time","CPU time (seconds)"
 zone t="20150430 173021.997"
 zone t="20150523 185009.344"
 zone t="20161007 142307.993"
 zone t="20171118 073821.134"
